# vtk DataFile Version 5.1
vtk output
ASCII
DATASET STRUCTURED_POINTS
DIMENSIONS 13 12 1
SPACING 2 2 1
ORIGIN 945016 1.95208e+06 0
CELL_DATA 132
SCALARS number%20of%20people float
LOOKUP_TABLE default
0 0 0 0 0 0 0 0 0 
0 0 0 0 0 0 0 7 8 
1 0 0 0 0 0 0 0 0 
9 14 15 4 0 0 0 0 0 
0 0 8 10 1 1 0 0 0 
0 0 0 11 35 37 27 23 16 
13 12 3 0 0 0 19 41 29 
27 21 23 20 14 18 3 0 0 
3 32 21 20 24 23 28 25 21 
4 2 0 0 16 27 35 34 35 
41 29 25 11 1 0 0 3 26 
49 46 43 49 50 33 6 0 0 
0 0 5 26 37 41 44 36 6 
0 0 0 0 0 0 0 7 8 
6 1 0 0 0 0 
VECTORS velocity float
0 0 0 0 0 0 0 0 0 
0 0 0 0 0 0 -0.11 -1.58 0 
0 0 0 0 0 0 0 0 0 
0 0 0 0 0 0 0 0 0 
0 0 0 0 0 0 0 0 0 
0.51 0.63 0 -3.62 -0.19 0 -1.99 0.08 0 
-2.38 -0.38 0 0 0 0 0 0 0 
0 0 0 0 0 0 0 0 0 
0 0 0 0 0 0 -2.48 -7.88 0 
-0.77 0.27 0 -4.21 -0.28 0 -0.03 -0.77 0 
0.75 -0 0 0 0 0 0 0 0 
0 0 0 0 0 0 0 0 0 
0 0 0 0.62 0.73 0 -0.12 0.02 0 
2.63 0.48 0 0.21 0.74 0 0.26 -0.33 0 
-0.2 0.1 0 0.45 -0.47 0 0 0 0 
0 0 0 0 0 0 0 0 0 
-0.12 1.49 0 -0.69 -1.15 0 1.41 -0.51 0 
0.98 0.3 0 0.02 0.23 0 0.27 -0.36 0 
-0.61 0.09 0 0.12 0.22 0 4.54 -3.02 0 
0.14 0.01 0 0 0 0 0 0 0 
0.1 -0.43 0 -0.45 -0.3 0 0.63 -0.53 0 
0.26 0.47 0 -1.47 -0.27 0 -0.64 -0.41 0 
-1.42 1.4 0 1.92 -1.76 0 8.3 -2.47 0 
0.57 -0.01 0 37.4 75.09 0 0 0 0 
-0.24 0.62 0 -0.62 0.14 0 0.3 0.49 0 
-4.75 -0.52 0 -0.96 0.93 0 -0.7 -0.53 0 
1.48 0.58 0 2.48 -1.6 0 -0.17 0.66 0 
1.23 0.3 0 35 73.56 0 22.14 38.16 0 
0 0 0 -2.32 0.52 0 4.63 0.59 0 
-0.52 -0.55 0 -2.34 -1.21 0 -0.32 0.54 0 
-0.51 0.52 0 -0.99 0.5 0 0.01 -0 0 
-0.24 0.14 0 -0.01 0.54 0 0.68 2.92 0 
0 0 0 -2.16 2.74 0 1.97 0.9 0 
0.98 -0.02 0 0.41 -0.24 0 0.12 -0.32 0 
-0.24 -0.03 0 -0.41 0.41 0 -0.64 0.03 0 
-0.23 0.16 0 0 0 0 0 0 0 
0 0 0 0 0 0 0.04 -0.51 0 
0.29 0.45 0 0.05 0.15 0 -0.63 -0.23 0 
-0.13 -0.62 0 -0.26 0.6 0 -0.68 0.93 0 
0 0 0 0 0 0 0 0 0 
0 0 0 0 0 0 0 0 0 
1.38 -1.62 0 -0.08 -0.9 0 4.63 -4.2 0 
1.63 -1.85 0 -4.79 1.99 0 0 0 0 
0 0 0 0 0 0 0 0 0 

FIELD FieldData 1
vtkGhostType 1 132 unsigned_char
1 1 1 1 1 0 1 1 1 
1 1 1 1 1 1 0 0 0 
0 1 1 1 1 1 1 1 0 
0 0 0 0 1 1 1 1 1 
1 0 0 0 0 0 0 0 1 
1 1 1 0 0 0 0 0 0 
0 0 0 0 1 1 0 0 0 
0 0 0 0 0 0 0 0 1 
0 0 0 0 0 0 0 0 0 
0 0 0 1 0 0 0 0 0 
0 0 0 0 0 0 1 0 0 
0 0 0 0 0 0 0 1 1 
1 1 0 0 0 0 0 0 0 
1 1 1 1 1 1 0 0 0 
0 0 1 1 1 1 
