# vtk DataFile Version 5.1
vtk output
ASCII
DATASET STRUCTURED_POINTS
DIMENSIONS 15 13 1
SPACING 2 2 1
ORIGIN 945005 1.95204e+06 0
CELL_DATA 168
SCALARS number%20of%20people float
LOOKUP_TABLE default
0 0 0 0 0 0 4 4 4 
2 2 0 0 0 0 0 0 0 
0 1 5 4 7 3 7 6 3 
0 0 0 0 0 0 1 4 6 
6 5 9 6 2 0 0 0 0 
0 2 24 24 22 17 17 12 8 
8 0 0 0 0 0 19 24 18 
18 18 14 8 12 8 0 0 0 
0 4 26 21 14 16 13 12 11 
9 7 0 0 0 8 35 33 23 
29 28 21 18 10 10 6 0 0 
10 33 31 28 26 23 26 19 18 
18 3 7 0 17 51 24 14 27 
15 20 20 21 22 18 19 13 0 
8 19 1 1 2 2 0 1 4 
14 22 25 15 0 0 0 0 0 
0 0 0 0 1 0 1 2 1 
0 0 0 0 0 0 0 0 0 
0 0 0 0 0 0 
VECTORS velocity float
0 0 0 0 0 0 0 0 0 
0 0 0 0 0 0 0 0 0 
1.95 3.11 0 -7.25 -0.44 0 4.12 -3.16 0 
2.47 0.99 0 -7.76 3.68 0 3.27 2.78 0 
-4.91 -0.59 0 0 0 0 0 0 0 
0 0 0 0 0 0 0 0 0 
0 0 0 7.41 2.87 0 2.97 -1.37 0 
0.66 -1.09 0 2.39 -0.34 0 0.76 0.53 0 
-1.18 0.98 0 10.17 -1.4 0 -1.92 -3.01 0 
0 0 0 0 0 0 0 0 0 
0 0 0 0 0 0 0 0 0 
2.79 0.98 0 0.51 0.2 0 0.25 0.78 0 
-0.14 -0 0 -0.74 0.22 0 4.33 3.5 0 
9.3 2.02 0 14.18 -7.43 0 0 0 0 
0 0 0 0 0 0 0 0 0 
0 0 0 0.78 0.47 0 -0.31 -0.04 0 
-0.46 0.27 0 0.46 0.23 0 0.42 0.15 0 
0.82 -0.59 0 -1.5 -1.18 0 2.88 3.58 0 
-3.51 -9.23 0 0 0 0 0 0 0 
0 0 0 0 0 0 0 0 0 
1.54 -0.31 0 -0.11 -0.67 0 1.55 0.24 0 
-0.71 0.66 0 -5.51 5.1 0 -1.53 -0.29 0 
-1.36 -0.38 0 -6.15 -0.88 0 3.07 1.4 0 
0 0 0 0 0 0 0 0 0 
0 0 0 -0.76 -1.2 0 -0.23 -0.13 0 
1.3 -1.15 0 2.5 0.54 0 -0.07 0.21 0 
-1.67 1.25 0 -3.13 2.8 0 -6.97 -0.5 0 
-8.78 -6.8 0 -14.72 0.61 0 0 0 0 
0 0 0 0 0 0 0.47 -0.4 0 
1.19 -0.59 0 0.44 0.96 0 0.93 1.64 0 
0.66 1.2 0 1.14 -0.79 0 0.01 1.7 0 
-0.64 -0.97 0 -25.88 -9.77 0 -4.92 -0.15 0 
1.78 -0.96 0 0 0 0 0 0 0 
1.29 -0.01 0 0.03 -0 0 0.54 0.21 0 
1.18 0.73 0 1.21 0.6 0 0.27 -0.06 0 
0.01 0.08 0 -0.55 -0.08 0 0.32 -0.2 0 
-2.11 -0.31 0 -0.45 -0.04 0 -5.24 2.54 0 
0 0 0 0.36 0.39 0 1.1 0.06 0 
0.18 -0.49 0 -0.01 -0.12 0 0.01 0.47 0 
-0.48 0.36 0 -1.98 -0.26 0 0.22 -0.17 0 
-0.08 -0.02 0 -2.28 0.4 0 -0.69 0.51 0 
1.95 -0.44 0 0.03 -0.07 0 0 0 0 
-0.37 -0.05 0 -0.02 -0.09 0 -0.15 0.03 0 
-0.02 -0.02 0 -0.1 -0.04 0 -0.01 0.01 0 
-0.76 0.08 0 0.18 0 0 -0.16 -0.14 0 
-0.19 0.4 0 0.2 -0.03 0 -0.18 0.06 0 
-0.21 -0.03 0 0.51 0.3 0 -0.36 -0.11 0 
-0.11 -0.11 0 -0.13 -0.03 0 -0.08 0.05 0 
0.04 0.04 0 0.12 -0.24 0 -0 -0.02 0 
-0.03 -0.04 0 0.72 -0.07 0 1.08 0.08 0 
0.11 -0.03 0 -1.22 -0.2 0 -0.3 -0.04 0 
-0.21 0.7 0 -0.25 -0.27 0 0.07 -0.14 0 
0.23 0.1 0 -0.33 0.1 0 0.13 -0.03 0 
0.32 0.03 0 0.05 -0.09 0 0.1 -0.13 0 
-0.31 -0 0 0.33 -0.07 0 0.14 -0.3 0 
-0.51 -0.11 0 0.85 -0.38 0 -0 -0.36 0 

FIELD FieldData 1
vtkGhostType 1 168 unsigned_char
1 1 1 1 1 1 0 0 0 
0 0 0 0 1 1 1 1 1 
1 0 0 0 0 0 0 0 0 
1 1 1 1 1 1 0 0 0 
0 0 0 0 0 1 1 1 1 
1 0 0 0 0 0 0 0 0 
0 1 1 1 1 1 0 0 0 
0 0 0 0 0 0 1 1 1 
1 0 0 0 0 0 0 0 0 
0 0 1 1 1 0 0 0 0 
0 0 0 0 0 0 0 1 1 
0 0 0 0 0 0 0 0 0 
0 0 0 1 0 0 0 0 0 
0 0 0 0 0 0 0 0 1 
0 0 0 0 0 0 0 0 0 
0 0 0 0 0 0 0 0 0 
0 0 0 0 0 0 0 0 0 
0 0 0 0 0 0 0 0 0 
0 0 0 0 0 0 
