# vtk DataFile Version 5.1
vtk output
ASCII
DATASET STRUCTURED_POINTS
DIMENSIONS 11 15 1
SPACING 2 2 1
ORIGIN 945016 1.95207e+06 0
CELL_DATA 140
SCALARS number%20of%20people float
LOOKUP_TABLE default
0 0 0 0 0 0 0 0 0 
0 0 0 0 0 0 0 1 34 
13 1 0 0 0 1 1 6 4 
68 23 0 0 0 1 2 3 5 
7 54 19 0 0 0 2 3 1 
8 9 42 26 0 0 1 1 1 
0 6 5 41 23 0 0 1 2 
2 2 8 13 84 32 0 0 1 
1 3 3 5 20 64 12 0 0 
3 0 1 5 9 16 53 5 0 
0 0 0 0 1 5 21 51 6 
0 0 0 0 0 0 1 17 53 
4 0 0 0 0 0 0 0 1 
21 6 0 0 0 0 0 0 0 
0 0 1 0 0 0 0 0 0 
0 0 0 0 0 
VECTORS velocity float
0 0 0 0 0 0 0 0 0 
0 0 0 0 0 0 0 0 0 
0 0 0 0 0 0 0.76 2.35 0 
0.61 5.46 0 0 0 0 0 0 0 
0 0 0 0 0 0 0 0 0 
-1.04 0.33 0 -0.71 -0.03 0 -1.36 1.13 0 
0.07 6.72 0 8.78 22.68 0 0 0 0 
0.01 -0.03 0 0.25 -1.15 0 0.17 -0.06 0 
-0.73 0.14 0 -0.36 0.19 0 -2.9 -2.86 0 
-0.43 -0.88 0 -3.61 3.3 0 1.73 7.07 0 
0 0 0 -0.24 -0.35 0 0.46 -0.23 0 
0.53 -0.55 0 0.35 -0.08 0 -1.18 3.46 0 
16.28 -1.58 0 1.88 0.62 0 1.28 -0.05 0 
-0.25 0.43 0 0 0 0 -0.77 -0.51 0 
0.06 -0.06 0 0.87 0.1 0 1.65 -0.19 0 
-0.24 0.22 0 11.45 -2.73 0 0.36 -1.21 0 
-0.04 0.36 0 0.28 -0.03 0 0 0 0 
-11.93 -35.86 0 -6.89 -20.24 0 0.64 0.64 0 
3 4.22 0 8.59 14.14 0 4.2 1.84 0 
-0.87 -1.54 0 0.45 -0.7 0 0.72 -0.02 0 
0 0 0 -15.06 -40.48 0 -15.91 -41.56 0 
16.29 24.65 0 6.54 7.69 0 0.11 0.04 0 
14.85 2.19 0 0.65 -0.32 0 -0.32 0.36 0 
0.03 0.07 0 0.32 -0.09 0 -0.93 -0.09 0 
-0.41 -0.1 0 -0.28 -0.22 0 1 -0.66 0 
-0.17 0.09 0 2.48 1.55 0 0.23 0.06 0 
-0.09 0.02 0 0.04 0.21 0 -1.48 -1.37 0 
-1.6 -1.18 0 -0.45 -0.52 0 -0.21 0.05 0 
0.16 -1.24 0 -0.24 0.01 0 -0.77 -0.07 0 
-0.17 0.12 0 0.49 0.29 0 -1.71 0.65 0 
0 0 0 0 0 0 -3.49 0.79 0 
-0.16 -0 0 -0.09 -0.04 0 0.08 0.01 0 
4.34 0.28 0 0.89 0.52 0 -2.96 0.22 0 
-1.1 0.17 0 0 0 0 0 0 0 
0 0 0 0 0 0 0 0 0 
0.01 0.04 0 2.43 0.58 0 0.73 0.05 0 
0.83 -0.15 0 0.05 0.24 0 0 0 0 
0 0 0 0 0 0 0 0 0 
0 0 0 0 0 0 3.08 4.4 0 
2.01 0.59 0 1.29 -0.16 0 0.71 0.84 0 
0 0 0 0 0 0 0 0 0 
0 0 0 0 0 0 0 0 0 
0 0 0 6.62 0.16 0 0.55 0.12 0 
0.66 -0.17 0 0 0 0 0 0 0 
0 0 0 0 0 0 0 0 0 
0 0 0 0 0 0 0 0 0 
0.69 0.81 0 0.34 -0.34 0 
FIELD FieldData 1
vtkGhostType 1 140 unsigned_char
1 1 1 1 1 1 1 1 0 
0 1 1 1 1 1 0 0 0 
0 0 1 0 0 0 0 0 0 
0 0 0 1 0 0 0 0 0 
0 0 0 0 1 0 0 0 0 
0 0 0 0 0 1 0 0 0 
0 0 0 0 0 0 1 0 0 
0 0 0 0 0 0 0 0 0 
0 0 0 0 0 0 0 0 0 
0 0 0 0 0 0 0 0 0 
1 1 0 0 0 0 0 0 0 
0 1 1 1 1 1 0 0 0 
0 0 1 1 1 1 1 1 0 
0 0 0 1 1 1 1 1 1 
1 0 0 0 1 1 1 1 1 
1 1 1 0 0 
