# vtk DataFile Version 5.1
vtk output
ASCII
DATASET STRUCTURED_POINTS
DIMENSIONS 15 15 1
SPACING 2 2 1
ORIGIN 945034 1.95208e+06 0
CELL_DATA 196
SCALARS number%20of%20people float
LOOKUP_TABLE default
0 0 0 0 0 0 0 0 0 
0 0 0 0 0 0 0 0 0 
0 0 0 0 0 0 0 0 0 
0 0 0 0 0 0 0 1 1 
0 0 0 0 0 0 0 0 0 
0 0 0 1 1 1 0 0 0 
0 0 0 0 0 0 1 1 1 
1 0 0 1 0 0 0 0 0 
0 0 1 2 1 1 2 4 2 
1 0 0 0 0 3 4 1 1 
2 1 1 5 2 3 1 0 0 
0 0 1 2 3 2 2 2 3 
5 7 1 0 1 4 4 2 3 
1 3 1 3 1 1 1 0 0 
1 10 15 9 6 8 12 2 13 
6 9 3 0 0 0 4 18 18 
9 21 21 9 13 17 13 0 0 
0 0 0 3 17 21 22 17 17 
28 28 5 0 0 0 0 0 0 
0 12 54 78 59 54 22 0 0 
0 0 0 0 0 0 0 0 0 
2 1 0 0 0 0 0 
VECTORS velocity float
0 0 0 0 0 0 0 0 0 
0 0 0 0 0 0 0 0 0 
-0.23 -0.02 0 -0.3 -0.06 0 0 0 0 
0 0 0 0 0 0 0 0 0 
0 0 0 0 0 0 0 0 0 
0 0 0 0 0 0 0 0 0 
0 0 0 0 0 0 -0.29 0.07 0 
-0.09 0.11 0 0 0 0 0 0 0 
0 0 0 0 0 0 0 0 0 
0 0 0 0 0 0 0 0 0 
0 0 0 0 0 0 0 0 0 
19.15 31.3 0 7.74 7 0 0 0.27 0 
-0.03 0.11 0 0 0 0 0 0 0 
0 0 0 0 0 0 0 0 0 
0 0 0 0 0 0 0 0 0 
0 0 0 45.07 25.58 0 74.86 70.27 0 
22.42 9.15 0 -0.02 0.19 0 -0.08 0.04 0 
0.18 -0.12 0 0 0 0 0 0 0 
0 0 0 0 0 0 0 0 0 
0 0 0 0 0 0 5.68 65.88 0 
87.61 68.33 0 85.44 37.26 0 25.8 -2.36 0 
0.04 0.08 0 -0.09 0.13 0 0.08 -0 0 
0.37 0.26 0 -0.07 -0.07 0 0 0 0 
0 0 0 0 0 0 0 0 0 
0 0 0 -0.81 4.02 0 26.42 45.86 0 
37.11 32.49 0 0.99 -2.57 0 4.33 19.36 0 
-0.19 0.01 0 -1.1 0.16 0 -1.37 0.36 0 
-0.17 0.13 0 0 0.01 0 0 0 0 
0 0 0 0 0 0 -0.44 0.68 0 
-0.53 0.39 0 -0.45 0.35 0 0.96 7.5 0 
26.13 -12.54 0 8.72 7.35 0 -2.4 -0.85 0 
-0.24 0.07 0 -0.57 0.81 0 0.16 -0.01 0 
1.86 -0.89 0 0 -0 0 0 0 0 
-2.94 0.87 0 -19.25 5.68 0 -1.21 1.66 0 
-2.81 5.34 0 17.09 8.66 0 12.42 -2.2 0 
-11.64 -4.96 0 32.51 -2.7 0 -2.32 -0.82 0 
-0.63 0.66 0 -0.23 1.02 0 0.05 -0 0 
-0.08 0.02 0 0.26 0.59 0 -5.78 1.46 0 
-7.01 4.4 0 -1.25 0.48 0 -4.3 1.85 0 
1.1 -4.75 0 18.08 -3.28 0 10.95 -2.93 0 
27.04 -2.97 0 -14.92 5.94 0 31.43 -6.44 0 
0.02 -0 0 0 -0 0 0 0 0 
-0.17 0.18 0 -0.25 1.39 0 -1.49 0.72 0 
0.01 1.03 0 -2.65 0.58 0 -4.8 3.01 0 
15.4 0.26 0 3.98 -0.52 0 2.24 -1.29 0 
-10.39 3.02 0 2.26 -0.87 0 -0.29 0.12 0 
1.21 -0.76 0 0 0 0 0 0 0 
0.25 0.59 0 -0.78 0.32 0 0 0.53 0 
-0.34 0.34 0 0.06 0.45 0 -1.16 -0.09 0 
2.6 1.37 0 0.16 0.15 0 -0.08 0.04 0 
1.49 0.01 0 0.17 0.01 0 0 0 0 
0 0 0 0 0 0 0 0 0 
-0.1 0.02 0 -0.15 0.46 0 -0.67 1.57 0 
0.17 1.05 0 -0.22 1.72 0 0.82 0.61 0 
0.31 -0.16 0 0.17 0.71 0 0.39 0.32 0 
0 0 0 0 0 0 0 0 0 
0 0 0 0 0 0 0 0 0 
0 0 0 -0.65 0.7 0 -0.13 1.01 0 
0.5 0.98 0 0.12 1.02 0 0.39 1 0 
1.02 0.93 0 0 0 0 0 0 0 
0 0 0 0 0 0 0 0 0 
0 0 0 0 0 0 0 0 0 
0 0 0 0 0 0 0.95 0.38 0 
-1.43 3.41 0 -0.11 0.29 0 0.02 -0.02 0 
0 0 0 0 0 0 0 0 0 
0 0 0 
FIELD FieldData 1
vtkGhostType 1 196 unsigned_char
1 1 1 1 1 1 0 0 1 
1 1 1 1 1 1 1 1 1 
1 1 0 0 1 1 1 1 1 
1 1 1 1 1 1 0 0 0 
0 1 1 1 1 1 1 1 1 
1 0 0 0 0 0 0 1 1 
1 1 1 1 1 0 0 0 0 
0 0 0 0 0 1 1 1 1 
1 0 0 0 0 0 0 0 0 
0 0 1 1 1 0 0 0 0 
0 0 0 0 0 0 0 0 1 
0 0 0 0 0 0 0 0 0 
0 0 0 0 0 0 0 0 0 
0 0 0 0 0 0 0 0 1 
0 0 0 0 0 0 0 0 0 
0 0 0 0 1 1 0 0 0 
0 0 0 0 0 0 0 0 1 
1 1 1 0 0 0 0 0 0 
0 0 0 1 1 1 1 1 1 
1 0 0 0 0 0 0 1 1 
1 1 1 1 1 1 1 1 0 
0 0 0 1 1 1 1 
