# vtk DataFile Version 5.1
vtk output
ASCII
DATASET STRUCTURED_POINTS
DIMENSIONS 15 19 1
SPACING 2 2 1
ORIGIN 945005 1.95199e+06 0
CELL_DATA 252
SCALARS number%20of%20people float
LOOKUP_TABLE default
0 0 0 0 0 0 0 0 0 
0 0 0 0 0 0 0 0 0 
0 0 1 0 0 0 0 0 0 
0 0 0 0 0 0 1 1 1 
0 0 0 0 0 0 0 0 0 
0 1 4 6 4 3 0 0 0 
0 0 0 0 0 0 5 8 10 
13 16 20 14 0 0 0 0 0 
0 1 8 10 14 14 17 22 29 
9 4 0 0 0 0 3 8 11 
13 14 23 22 29 17 40 11 0 
0 3 6 7 12 13 17 22 20 
26 21 38 24 0 1 6 8 9 
12 13 14 19 24 27 23 35 17 
0 4 4 7 7 11 14 18 17 
20 20 23 29 11 0 1 3 5 
6 10 13 14 17 20 16 16 22 
6 0 0 0 2 8 9 13 14 
16 12 13 9 12 0 0 0 0 
0 3 11 10 12 15 9 10 9 
19 0 0 0 0 0 0 2 6 
9 8 13 7 11 15 0 0 0 
0 0 0 0 0 4 10 13 8 
9 4 0 0 0 0 0 0 0 
0 0 2 6 21 36 6 0 0 
0 0 0 0 0 0 0 0 0 
8 18 0 0 0 0 0 0 0 
0 0 0 0 0 0 1 0 0 

VECTORS velocity float
0 0 0 0 0 0 0 0 0 
0 0 0 0 0 0 -0.93 -0.35 0 
0.1 1.67 0 0 0 0 0 0 0 
0 0 0 0 0 0 0 0 0 
0 0 0 0 0 0 0 0 0 
0 0 0 0 0 0 0 0 0 
0 0 0 -0.26 0.03 0 0.31 0.25 0 
0 0.24 0 0 0 0 0 0 0 
0 0 0 0 0 0 0 0 0 
0 0 0 0 0 0 0 0 0 
0 0 0 0 0 0 0.59 -0.54 0 
0.06 -0.19 0 -0.02 -0.01 0 0.31 -0.07 0 
0.65 0.19 0 0 0 0 0 0 0 
0 0 0 0 0 0 0 0 0 
0 0 0 0 0 0 0 0 0 
0 0 0 0.25 0.35 0 0.39 -0.71 0 
0.3 -0.16 0 0.28 -0.09 0 0.08 -0.04 0 
0.2 0.18 0 0 0 0 0 0 0 
0 0 0 0 0 0 0 0 0 
0 0 0 0 0 0 3.81 6.03 0 
-3.33 1.57 0 -0.11 -2.5 0 -0.2 0.94 0 
1.25 2.5 0 1.11 1.07 0 0.03 0.65 0 
0.43 -1.38 0 0.02 0.47 0 0 0 0 
0 0 0 0 0 0 0 0 0 
0 0 0 0.99 -7.4 0 -0.36 -6.14 0 
0.87 0.42 0 -0.94 -0.74 0 0.42 -1.57 0 
0.13 -0.08 0 0.04 -2.04 0 0.13 -0.74 0 
0.4 -0.27 0 3.57 0.02 0 0 0 0 
0 0 0 0 0 0 -1.13 0.53 0 
2.28 1.21 0 2.7 4.3 0 3.46 -0.39 0 
1.29 -0.46 0 -0.66 -2.8 0 1.68 -0.22 0 
1.55 -1.45 0 1.38 -0.86 0 1.1 0.9 0 
-0.07 1.32 0 0.88 2.92 0 0 0 0 
0 0 0 -3.09 -1.11 0 -1.78 -3.28 0 
7.14 5.47 0 4.26 0.29 0 -2.9 -6.85 0 
-0.72 -2.45 0 2.5 0.24 0 0.94 0.51 0 
-1.84 -0.93 0 1.07 0.83 0 0.17 0.94 0 
-0.24 2.91 0 0 0 0 0.1 -1.18 0 
2.5 -0.79 0 1.19 -1.42 0 0.71 0.01 0 
-3.46 -4.05 0 2.79 0.08 0 -0.97 -0.57 0 
3.4 4.08 0 1.31 2.69 0 1.07 0.8 0 
1.56 1.57 0 -1.3 0.18 0 1.13 2.38 0 
3.65 8.13 0 3.13 -1.29 0 -5.06 -8.03 0 
-2.28 -1.97 0 2.39 2.14 0 1.92 1.13 0 
-0.49 0.35 0 -1.57 -2.2 0 -2 -2.79 0 
6.96 -1.72 0 2.59 -2.39 0 1.47 -1.46 0 
-0.12 -0.31 0 -0.01 -0.49 0 0 0 0 
41.43 26.57 0 6.08 -5.75 0 -1.22 -5.06 0 
4.4 3.41 0 2.83 4.25 0 0.53 2.22 0 
0.27 1.3 0 1.64 2.53 0 -0.46 2.41 0 
3.21 -1.76 0 1.12 -2.17 0 -0.13 -0.74 0 
0.64 -1.71 0 0 0 0 0 0 0 
-36.06 -25.61 0 -6.72 -4.74 0 4.54 1.83 0 
4.43 6.42 0 1.17 -0.05 0 2.35 2.03 0 
-3.77 -0 0 -5.57 -1.26 0 -2.47 -0.36 0 
-0.55 -0.88 0 0.45 -0.57 0 0.34 3.41 0 
0 0 0 0 0 0 0 0 0 
3.25 0.07 0 -2.2 -2.5 0 -3.03 -1.04 0 
2.22 -0.11 0 -2.01 0.25 0 -2.51 -0.18 0 
0.73 -1.04 0 -1.86 -1.98 0 -0.02 1.25 0 
1.46 0.43 0 0 0 0 0 0 0 
0 0 0 0 0 0 0 0 0 
0 0 0 -7.08 -2.95 0 -0.26 0.7 0 
0.82 0.28 0 -0.63 -0.33 0 0.97 1.42 0 
0.14 1.27 0 0.34 -0 0 -1.06 -0.14 0 
0 0 0 0 0 0 0 0 0 
0 0 0 0 0 0 0 0 0 
0 0 0 0.01 -6.89 0 11.55 3.84 0 
9.84 0.22 0 6.66 2.21 0 -0.12 -0.4 0 
-1.09 1.41 0 0.18 0.59 0 0 0 0 
0 0 0 0 0 0 0 0 0 
0 0 0 0 0 0 0 0 0 
0 0 0 0 0 0 -2.71 -0.33 0 
0.25 0.84 0 0.83 0.68 0 -1.88 0.57 0 
-1.84 3.4 0 0 0 0 0 0 0 
0 0 0 0 0 0 0 0 0 
0 0 0 0 0 0 0 0 0 
0 0 0 0 0 0 -0.25 1.83 0 
0.6 -2 0 4 0.94 0 0 0 0 
0 0 0 0 0 0 0 0 0 
0 0 0 0 0 0 0 0 0 
0 0 0 0 0 0 0 0 0 
0 0 0 0 0 0 0 0 0 
-0.74 -3.12 0 0 0 0 0 0 0 

FIELD FieldData 1
vtkGhostType 1 252 unsigned_char
1 1 1 1 1 0 0 1 1 
1 1 1 1 1 1 1 1 1 
1 0 0 0 1 1 1 1 1 
1 1 1 1 1 0 0 0 0 
0 1 1 1 1 1 1 1 1 
1 0 0 0 0 0 0 1 1 
1 1 1 1 1 0 0 0 0 
0 0 0 0 0 1 1 1 1 
1 0 0 0 0 0 0 0 0 
0 0 1 1 1 0 0 0 0 
0 0 0 0 0 0 0 0 1 
1 0 0 0 0 0 0 0 0 
0 0 0 0 1 0 0 0 0 
0 0 0 0 0 0 0 0 0 
0 0 0 0 0 0 0 0 0 
0 0 0 0 0 1 0 0 0 
0 0 0 0 0 0 0 0 0 
0 1 1 0 0 0 0 0 0 
0 0 0 0 0 0 1 1 1 
0 0 0 0 0 0 0 0 0 
0 1 1 1 1 1 1 0 0 
0 0 0 0 0 0 1 1 1 
1 1 1 1 0 0 0 0 0 
0 0 1 1 1 1 1 1 1 
1 1 0 0 0 0 0 1 1 
1 1 1 1 1 1 1 1 0 
0 0 1 1 1 1 1 1 1 
1 1 1 1 1 1 0 1 1 

