# vtk DataFile Version 5.1
vtk output
ASCII
DATASET STRUCTURED_POINTS
DIMENSIONS 13 20 1
SPACING 2 2 1
ORIGIN 944988 1.952e+06 0
CELL_DATA 228
SCALARS number%20of%20people float
LOOKUP_TABLE default
0 1 0 0 0 0 0 0 0 
0 0 0 0 1 4 2 5 3 
0 0 0 0 0 0 0 1 3 
1 12 13 9 2 0 0 0 0 
0 3 7 5 17 13 12 14 3 
0 0 0 0 5 8 5 15 16 
12 11 9 10 0 0 0 3 4 
6 20 18 19 14 13 8 0 0 
2 5 3 6 18 18 18 19 11 
9 0 0 1 4 3 5 19 19 
17 21 17 9 0 0 5 4 5 
7 20 18 17 16 15 14 0 0 
3 8 7 10 15 20 17 18 14 
8 0 0 0 3 5 8 14 14 
15 15 15 8 1 0 0 0 2 
7 10 15 16 11 10 15 8 0 
0 0 0 4 11 13 12 10 6 
22 11 0 0 0 0 0 6 8 
12 12 10 11 10 0 0 0 0 
0 0 5 6 10 11 11 8 0 
0 0 0 0 0 0 8 15 20 
11 7 0 0 0 0 0 0 0 
5 11 12 8 2 0 0 0 0 
0 0 0 1 9 13 11 5 0 
0 0 0 0 0 0 0 6 11 
12 6 0 
VECTORS velocity float
0 0 0 -3.15 2.28 0 1.18 -1.64 0 
-0.16 -0.39 0 0 0 0 0 0 0 
0 0 0 0 0 0 0 0 0 
0 0 0 0 0 0 0 0 0 
0 0 0 -1.61 1.46 0 0.98 1.18 0 
-0.06 1.19 0 -0.32 0.24 0 -2.74 1.43 0 
0 0 0 0 0 0 0 0 0 
0 0 0 0 0 0 0 0 0 
0 0 0 -0.86 -0.02 0 -0.46 0.34 0 
-0.44 1.1 0 -0.42 -0.31 0 3.4 0.14 0 
-0.14 -0.59 0 5.22 0.56 0 0 0 0 
0 0 0 0 0 0 0 0 0 
0 0 0 -6.46 5.95 0 -3.01 1.89 0 
-0.44 1.1 0 -0.54 -0.21 0 -0.88 0.26 0 
-0.92 0.53 0 0.78 1 0 -0.24 -0.24 0 
-0.27 0.4 0 0 0 0 0 0 0 
0 0 0 -4.33 3.99 0 -1.58 2.55 0 
0.92 -0.49 0 -2.75 0.19 0 -2.46 0.7 0 
-2.52 1.65 0 -4.73 1.1 0 -0.44 0.09 0 
-0.1 -0.78 0 0.23 0.03 0 0 0 0 
-0.91 -0.77 0 -1.47 1.58 0 -0.74 0.78 0 
-2.96 1.14 0 -0.7 0.51 0 -0.55 1 0 
-1.63 0.05 0 -1.89 0.75 0 -0.54 0.49 0 
-0.06 0.18 0 0.28 0.51 0 0 0 0 
-4.59 2.9 0 -2.79 1.88 0 0.71 0.7 0 
-0.47 1.47 0 -1.35 -0.45 0 -0.79 -0.34 0 
-1.5 -0.78 0 -1.24 0.58 0 -0.15 0.02 0 
0.04 -0.06 0 -0.09 0.55 0 0 0 0 
5.42 -2.81 0 0.67 -0.2 0 3.09 1.01 0 
0.28 0.47 0 -1.27 -0.03 0 -1.95 -0.58 0 
-0.42 0.19 0 0.17 1.07 0 -0.39 0 0 
0.63 0.3 0 0.24 0.03 0 0 0 0 
-3.81 1 0 -3.51 1.44 0 1.3 -0.58 0 
-1.17 -1.99 0 -0 -0.26 0 0.49 -1.44 0 
1.76 -0.81 0 0.62 0.84 0 -0.9 0.01 0 
-1.24 -0.2 0 -0.09 0.02 0 0 0 0 
-7.82 -2.05 0 -2.85 2.26 0 2.69 1.25 0 
6.23 -0.72 0 -1.91 0.11 0 -1.97 0.22 0 
-1.71 0.98 0 -5.65 2.43 0 -0.64 0.27 0 
-0.82 0.39 0 0.03 0.12 0 0 0 0 
0 0 0 2.47 1.21 0 3.07 -3.84 0 
-0.8 -0.42 0 -0.14 -0.07 0 -2.54 1.52 0 
-2.62 0.2 0 -9.17 2.62 0 -0.54 0.7 0 
-0.77 0.16 0 -0.28 0.19 0 0 0 0 
0 0 0 0 0 0 7.11 -17.63 0 
3.54 -5.69 0 -0.9 -0.95 0 -0.86 1.58 0 
0.7 0.7 0 -0.83 0.87 0 -0.2 3.63 0 
0.53 -0.13 0 0.1 1.15 0 0 0 0 
0 0 0 0 0 0 0 0 0 
0.07 -1.48 0 -4.5 -1.98 0 -5.3 -1.12 0 
-0.83 1.07 0 11.48 -0.39 0 -2.26 -1.79 0 
0.32 -0.07 0 -0.48 0.17 0 0 0 0 
0 0 0 0 0 0 0 0 0 
0 0 0 -2.51 1.29 0 -2.24 -0.13 0 
-3.57 1.97 0 0.97 -1.1 0 -0.22 -1.58 0 
-0.66 -1.81 0 -0.17 -0.04 0 0 0 0 
0 0 0 0 0 0 0 0 0 
0 0 0 2.02 8.29 0 -3.44 -2.07 0 
8.19 -2.7 0 0.45 -0.59 0 -0.37 -0.11 0 
-1.18 -0.81 0 -0.08 -0.01 0 0 0 0 
0 0 0 0 0 0 0 0 0 
0 0 0 0 0 0 -22.75 -4.23 0 
-3.07 1.14 0 -3.26 -0.09 0 -1 -0.36 0 
-1.2 -0.99 0 -0.52 0.61 0 0 0 0 
0 0 0 0 0 0 0 0 0 
0 0 0 0 0 0 0 0 0 
-2.21 3.02 0 -4.11 1.5 0 0.27 -0.07 0 
-0.33 -0.3 0 0.38 -0.1 0 0 0 0 
0 0 0 0 0 0 0 0 0 
0 0 0 0 0 0 0 0 0 
-0.11 0.23 0 -0.03 0.7 0 -1.15 -1.24 0 
-0.43 0.57 0 0.3 -0.12 0 0.19 -2.4 0 
0 0 0 0 0 0 0 0 0 
0 0 0 0 0 0 0 0 0 
0 0 0 0.05 0.15 0 -0.27 -0.26 0 
-0.16 0.18 0 0 0.54 0 -3.64 -1.32 0 

FIELD FieldData 1
vtkGhostType 1 228 unsigned_char
1 0 0 0 1 1 1 1 1 
1 1 1 1 0 0 0 0 0 
1 1 1 1 1 1 1 0 0 
0 0 0 0 0 1 1 1 1 
1 0 0 0 0 0 0 0 0 
0 1 1 1 0 0 0 0 0 
0 0 0 0 0 1 0 0 0 
0 0 0 0 0 0 0 0 1 
0 0 0 0 0 0 0 0 0 
0 0 1 0 0 0 0 0 0 
0 0 0 0 0 1 0 0 0 
0 0 0 0 0 0 0 0 1 
0 0 0 0 0 0 0 0 0 
0 0 1 1 0 0 0 0 0 
0 0 0 0 0 1 1 1 0 
0 0 0 0 0 0 0 0 1 
1 1 1 0 0 0 0 0 0 
0 0 1 1 1 1 1 0 0 
0 0 0 0 0 1 1 1 1 
1 0 0 0 0 0 0 0 1 
1 1 1 1 1 0 0 0 0 
0 0 1 1 1 1 1 1 1 
0 0 0 0 0 1 1 1 1 
1 1 1 0 0 0 0 0 0 
1 1 1 1 1 1 1 0 0 
0 0 0 
