# vtk DataFile Version 5.1
vtk output
ASCII
DATASET POLYDATA
POINTS 19 float
945089 1.95209e+06 0 945087 1.9521e+06 0 945089 1.9521e+06 0 
945089 1.95209e+06 0 945075 1.95211e+06 0 945085 1.95209e+06 0 
945086 1.95209e+06 0 945074 1.9521e+06 0 945085 1.95209e+06 0 
945084 1.9521e+06 0 945090 1.95209e+06 0 945077 1.9521e+06 0 
945087 1.9521e+06 0 945079 1.9521e+06 0 945074 1.95211e+06 0 
945073 1.95211e+06 0 945090 1.9521e+06 0 945086 1.9521e+06 0 
945080 1.9521e+06 0 
VERTICES 20 19
OFFSETS vtktypeint64
0 1 2 3 4 5 6 7 8 
9 10 11 12 13 14 15 16 17 
18 19 
CONNECTIVITY vtktypeint64
0 1 2 3 4 5 6 7 8 
9 10 11 12 13 14 15 16 17 
18 
POINT_DATA 19
VECTORS velocity float
-0.00431338 0.00810957 0 0.0145312 0.00316178 0 0.0280924 -0.0114771 0 
0.00406551 0.0194459 0 0.00118057 0.00552408 0 0.0535051 6.25705e-05 0 
0.398184 -0.00268005 0 -0.0187634 -0.00697176 0 0.0356273 0.079203 0 
0.0151798 0.00765436 0 0.0197615 0.0140528 0 -0.00576171 0.0326799 0 
0.835285 -0.309881 0 1.06452 -0.601222 0 -0.0126923 -0.0293655 0 
-0.0102514 -0.0187021 0 1.04259 0.174054 0 0.52526 -0.235784 0 
0.0458723 0.00852888 0 
FIELD FieldData 2
id 1 19 float
7.00101e+18 7.00101e+18 7.00101e+18 7.00101e+18 7.00101e+18 7.00101e+18 7.00101e+18 7.00101e+18 7.00101e+18 
7.00101e+18 7.00101e+18 7.00101e+18 7.00101e+18 7.00101e+18 7.00101e+18 7.00101e+18 7.00101e+18 7.00101e+18 
7.00101e+18 
age 1 19 float
688 668 999 1001 1684 29 24 199 38 
183 2316 121 16 8 787 999 8 39 
128 
