# vtk DataFile Version 5.1
vtk output
ASCII
DATASET POLYDATA
POINTS 1440 double
944983.60437 1952078.1002 0 944983.60437 1952080.1002 0 944983.60437 1952082.1002 0 
944983.60437 1952084.1002 0 944983.60437 1952086.1002 0 944983.60437 1952088.1002 0 
944983.60437 1952090.1002 0 944983.60437 1952092.1002 0 944983.60437 1952094.1002 0 
944983.60437 1952096.1002 0 944983.60437 1952098.1002 0 944983.60437 1952100.1002 0 
944985.60437 1952078.1002 0 944985.60437 1952080.1002 0 944985.60437 1952082.1002 0 
944985.60437 1952084.1002 0 944985.60437 1952086.1002 0 944985.60437 1952088.1002 0 
944985.60437 1952090.1002 0 944985.60437 1952092.1002 0 944985.60437 1952094.1002 0 
944985.60437 1952096.1002 0 944985.60437 1952098.1002 0 944985.60437 1952100.1002 0 
944987.60437 1952078.1002 0 944987.60437 1952080.1002 0 944987.60437 1952082.1002 0 
944987.60437 1952084.1002 0 944987.60437 1952086.1002 0 944987.60437 1952088.1002 0 
944987.60437 1952090.1002 0 944987.60437 1952092.1002 0 944987.60437 1952094.1002 0 
944987.60437 1952096.1002 0 944987.60437 1952098.1002 0 944987.60437 1952100.1002 0 
944989.60437 1952078.1002 0 944989.60437 1952080.1002 0 944989.60437 1952082.1002 0 
944989.60437 1952084.1002 0 944989.60437 1952086.1002 0 944989.60437 1952088.1002 0 
944989.60437 1952090.1002 0 944989.60437 1952092.1002 0 944989.60437 1952094.1002 0 
944989.60437 1952096.1002 0 944989.60437 1952098.1002 0 944989.60437 1952100.1002 0 
944991.60437 1952078.1002 0 944991.60437 1952080.1002 0 944991.60437 1952082.1002 0 
944991.60437 1952084.1002 0 944991.60437 1952086.1002 0 944991.60437 1952088.1002 0 
944991.60437 1952090.1002 0 944991.60437 1952092.1002 0 944991.60437 1952094.1002 0 
944991.60437 1952096.1002 0 944991.60437 1952098.1002 0 944991.60437 1952100.1002 0 
944993.60437 1952078.1002 0 944993.60437 1952080.1002 0 944993.60437 1952082.1002 0 
944993.60437 1952084.1002 0 944993.60437 1952086.1002 0 944993.60437 1952088.1002 0 
944993.60437 1952090.1002 0 944993.60437 1952092.1002 0 944993.60437 1952094.1002 0 
944993.60437 1952096.1002 0 944993.60437 1952098.1002 0 944993.60437 1952100.1002 0 
944995.60437 1952078.1002 0 944995.60437 1952080.1002 0 944995.60437 1952082.1002 0 
944995.60437 1952084.1002 0 944995.60437 1952086.1002 0 944995.60437 1952088.1002 0 
944995.60437 1952090.1002 0 944995.60437 1952092.1002 0 944995.60437 1952094.1002 0 
944995.60437 1952096.1002 0 944995.60437 1952098.1002 0 944995.60437 1952100.1002 0 
944997.60437 1952078.1002 0 944997.60437 1952080.1002 0 944997.60437 1952082.1002 0 
944997.60437 1952084.1002 0 944997.60437 1952086.1002 0 944997.60437 1952088.1002 0 
944997.60437 1952090.1002 0 944997.60437 1952092.1002 0 944997.60437 1952094.1002 0 
944997.60437 1952096.1002 0 944997.60437 1952098.1002 0 944997.60437 1952100.1002 0 
944999.60437 1952078.1002 0 944999.60437 1952080.1002 0 944999.60437 1952082.1002 0 
944999.60437 1952084.1002 0 944999.60437 1952086.1002 0 944999.60437 1952088.1002 0 
944999.60437 1952090.1002 0 944999.60437 1952092.1002 0 944999.60437 1952094.1002 0 
944999.60437 1952096.1002 0 944999.60437 1952098.1002 0 944999.60437 1952100.1002 0 
945001.60437 1952078.1002 0 945001.60437 1952080.1002 0 945001.60437 1952082.1002 0 
945001.60437 1952084.1002 0 945001.60437 1952086.1002 0 945001.60437 1952088.1002 0 
945001.60437 1952090.1002 0 945001.60437 1952092.1002 0 945001.60437 1952094.1002 0 
945001.60437 1952096.1002 0 945001.60437 1952098.1002 0 945001.60437 1952100.1002 0 
945003.60437 1952078.1002 0 945003.60437 1952080.1002 0 945003.60437 1952082.1002 0 
945003.60437 1952084.1002 0 945003.60437 1952086.1002 0 945003.60437 1952088.1002 0 
945003.60437 1952090.1002 0 945003.60437 1952092.1002 0 945003.60437 1952094.1002 0 
945003.60437 1952096.1002 0 945003.60437 1952098.1002 0 945003.60437 1952100.1002 0 
945005.60437 1952078.1002 0 945005.60437 1952080.1002 0 945005.60437 1952082.1002 0 
945005.60437 1952084.1002 0 945005.60437 1952086.1002 0 945005.60437 1952088.1002 0 
945005.60437 1952090.1002 0 945005.60437 1952092.1002 0 945005.60437 1952094.1002 0 
945005.60437 1952096.1002 0 945005.60437 1952098.1002 0 945005.60437 1952100.1002 0 
944957.36634 1952152.8616 0 944957.36634 1952154.8616 0 944957.36634 1952156.8616 0 
944957.36634 1952158.8616 0 944957.36634 1952160.8616 0 944957.36634 1952162.8616 0 
944957.36634 1952164.8616 0 944957.36634 1952166.8616 0 944957.36634 1952168.8616 0 
944957.36634 1952170.8616 0 944957.36634 1952172.8616 0 944957.36634 1952174.8616 0 
944959.36634 1952152.8616 0 944959.36634 1952154.8616 0 944959.36634 1952156.8616 0 
944959.36634 1952158.8616 0 944959.36634 1952160.8616 0 944959.36634 1952162.8616 0 
944959.36634 1952164.8616 0 944959.36634 1952166.8616 0 944959.36634 1952168.8616 0 
944959.36634 1952170.8616 0 944959.36634 1952172.8616 0 944959.36634 1952174.8616 0 
944961.36634 1952152.8616 0 944961.36634 1952154.8616 0 944961.36634 1952156.8616 0 
944961.36634 1952158.8616 0 944961.36634 1952160.8616 0 944961.36634 1952162.8616 0 
944961.36634 1952164.8616 0 944961.36634 1952166.8616 0 944961.36634 1952168.8616 0 
944961.36634 1952170.8616 0 944961.36634 1952172.8616 0 944961.36634 1952174.8616 0 
944963.36634 1952152.8616 0 944963.36634 1952154.8616 0 944963.36634 1952156.8616 0 
944963.36634 1952158.8616 0 944963.36634 1952160.8616 0 944963.36634 1952162.8616 0 
944963.36634 1952164.8616 0 944963.36634 1952166.8616 0 944963.36634 1952168.8616 0 
944963.36634 1952170.8616 0 944963.36634 1952172.8616 0 944963.36634 1952174.8616 0 
944965.36634 1952152.8616 0 944965.36634 1952154.8616 0 944965.36634 1952156.8616 0 
944965.36634 1952158.8616 0 944965.36634 1952160.8616 0 944965.36634 1952162.8616 0 
944965.36634 1952164.8616 0 944965.36634 1952166.8616 0 944965.36634 1952168.8616 0 
944965.36634 1952170.8616 0 944965.36634 1952172.8616 0 944965.36634 1952174.8616 0 
944967.36634 1952152.8616 0 944967.36634 1952154.8616 0 944967.36634 1952156.8616 0 
944967.36634 1952158.8616 0 944967.36634 1952160.8616 0 944967.36634 1952162.8616 0 
944967.36634 1952164.8616 0 944967.36634 1952166.8616 0 944967.36634 1952168.8616 0 
944967.36634 1952170.8616 0 944967.36634 1952172.8616 0 944967.36634 1952174.8616 0 
944969.36634 1952152.8616 0 944969.36634 1952154.8616 0 944969.36634 1952156.8616 0 
944969.36634 1952158.8616 0 944969.36634 1952160.8616 0 944969.36634 1952162.8616 0 
944969.36634 1952164.8616 0 944969.36634 1952166.8616 0 944969.36634 1952168.8616 0 
944969.36634 1952170.8616 0 944969.36634 1952172.8616 0 944969.36634 1952174.8616 0 
944971.36634 1952152.8616 0 944971.36634 1952154.8616 0 944971.36634 1952156.8616 0 
944971.36634 1952158.8616 0 944971.36634 1952160.8616 0 944971.36634 1952162.8616 0 
944971.36634 1952164.8616 0 944971.36634 1952166.8616 0 944971.36634 1952168.8616 0 
944971.36634 1952170.8616 0 944971.36634 1952172.8616 0 944971.36634 1952174.8616 0 
944973.36634 1952152.8616 0 944973.36634 1952154.8616 0 944973.36634 1952156.8616 0 
944973.36634 1952158.8616 0 944973.36634 1952160.8616 0 944973.36634 1952162.8616 0 
944973.36634 1952164.8616 0 944973.36634 1952166.8616 0 944973.36634 1952168.8616 0 
944973.36634 1952170.8616 0 944973.36634 1952172.8616 0 944973.36634 1952174.8616 0 
944975.36634 1952152.8616 0 944975.36634 1952154.8616 0 944975.36634 1952156.8616 0 
944975.36634 1952158.8616 0 944975.36634 1952160.8616 0 944975.36634 1952162.8616 0 
944975.36634 1952164.8616 0 944975.36634 1952166.8616 0 944975.36634 1952168.8616 0 
944975.36634 1952170.8616 0 944975.36634 1952172.8616 0 944975.36634 1952174.8616 0 
944977.36634 1952152.8616 0 944977.36634 1952154.8616 0 944977.36634 1952156.8616 0 
944977.36634 1952158.8616 0 944977.36634 1952160.8616 0 944977.36634 1952162.8616 0 
944977.36634 1952164.8616 0 944977.36634 1952166.8616 0 944977.36634 1952168.8616 0 
944977.36634 1952170.8616 0 944977.36634 1952172.8616 0 944977.36634 1952174.8616 0 
944979.36634 1952152.8616 0 944979.36634 1952154.8616 0 944979.36634 1952156.8616 0 
944979.36634 1952158.8616 0 944979.36634 1952160.8616 0 944979.36634 1952162.8616 0 
944979.36634 1952164.8616 0 944979.36634 1952166.8616 0 944979.36634 1952168.8616 0 
944979.36634 1952170.8616 0 944979.36634 1952172.8616 0 944979.36634 1952174.8616 0 
945041.97125 1952131.1689 0 945041.97125 1952133.1689 0 945041.97125 1952135.1689 0 
945041.97125 1952137.1689 0 945041.97125 1952139.1689 0 945041.97125 1952141.1689 0 
945041.97125 1952143.1689 0 945041.97125 1952145.1689 0 945041.97125 1952147.1689 0 
945041.97125 1952149.1689 0 945041.97125 1952151.1689 0 945041.97125 1952153.1689 0 
945043.97125 1952131.1689 0 945043.97125 1952133.1689 0 945043.97125 1952135.1689 0 
945043.97125 1952137.1689 0 945043.97125 1952139.1689 0 945043.97125 1952141.1689 0 
945043.97125 1952143.1689 0 945043.97125 1952145.1689 0 945043.97125 1952147.1689 0 
945043.97125 1952149.1689 0 945043.97125 1952151.1689 0 945043.97125 1952153.1689 0 
945045.97125 1952131.1689 0 945045.97125 1952133.1689 0 945045.97125 1952135.1689 0 
945045.97125 1952137.1689 0 945045.97125 1952139.1689 0 945045.97125 1952141.1689 0 
945045.97125 1952143.1689 0 945045.97125 1952145.1689 0 945045.97125 1952147.1689 0 
945045.97125 1952149.1689 0 945045.97125 1952151.1689 0 945045.97125 1952153.1689 0 
945047.97125 1952131.1689 0 945047.97125 1952133.1689 0 945047.97125 1952135.1689 0 
945047.97125 1952137.1689 0 945047.97125 1952139.1689 0 945047.97125 1952141.1689 0 
945047.97125 1952143.1689 0 945047.97125 1952145.1689 0 945047.97125 1952147.1689 0 
945047.97125 1952149.1689 0 945047.97125 1952151.1689 0 945047.97125 1952153.1689 0 
945049.97125 1952131.1689 0 945049.97125 1952133.1689 0 945049.97125 1952135.1689 0 
945049.97125 1952137.1689 0 945049.97125 1952139.1689 0 945049.97125 1952141.1689 0 
945049.97125 1952143.1689 0 945049.97125 1952145.1689 0 945049.97125 1952147.1689 0 
945049.97125 1952149.1689 0 945049.97125 1952151.1689 0 945049.97125 1952153.1689 0 
[...]
CELL_DATA 1210
SCALARS density float
LOOKUP_TABLE default
0 0 0 0 0 0 0 0 0 
0 0 0 0 0 0 0 0 0 
0 0 0 0 0 0 0 0 0 
0 0 0 0 0 0 0 0 0 
0 0 0 0 0 0 0 0 0 
0 0 0 0 0 0 0 0 0 
0 0 0 0 0 0 0 0 0 
0 0 0 0 0 0 0 0 0 
0 0 0 0 0 0 0 0 0 
0 0 0 0 0 0 0 0 0 
0 0 0 0 0 0 0 0 0 
0 0 0 0 0 0 0 0 0 
0 0 0 0 0 0 0 0 0 
0 0 0 0 0 0 0 0 0 
0 0 0 0 0 0 0 0 0 
0.8 0.8 0.8 0.8 0.8 0 0 0 0 
0 0.8 0.8 0.8 0.8 0.8 0.8 0.8 0 
0 0 0.8 0.8 0.8 0.8 0.8 0.8 0.8 
0.8 0.8 0 0 0.8 0.8 0.8 0.8 0.8 
0.8 0.8 0.8 0.8 0 0 0.8 0.8 0.8 
0.8 0.8 0.8 0.8 0.8 0.8 0.8 0 0.8 
0.8 0.8 0.8 0.8 0.8 0.8 0.8 0.8 0.8 
0 0.8 0.8 0.8 0.8 0.8 0.8 0.8 0.8 
0.8 0 0 0.8 0.8 0.8 0.8 0.8 0.8 
0.8 0.8 0.8 0 0 0 0.8 0.8 0.8 
0.8 0.8 0.8 0.8 0 0 0 0 0 
0 0.8 0.8 0.8 0 0 0 0 0 
0 0 0 0 0 0 0 0 0 
0 0 0 0 0.4 0.4 0.4 0.4 0.4 
0 0 0 0 0 0.4 0.4 0.4 0.4 
0.4 0.4 0.4 0 0 0 0.4 0.4 0.4 
0.4 0.4 0.4 0.4 0.4 0.4 0 0 0.4 
0.4 0.4 0.4 0.4 0.4 0.4 0.4 0.4 0 
0.4 0.4 0.4 0.4 0.4 0.4 0.4 0.4 0.4 
0.4 0 0.4 0.4 0.4 0.4 0.4 0.4 0.4 
0.4 0.4 0.4 0 0 0.4 0.4 0.4 0.4 
0.4 0.4 0.4 0.4 0.4 0 0 0.4 0.4 
0.4 0.4 0.4 0.4 0.4 0.4 0.4 0 0 
0 0.4 0.4 0.4 0.4 0.4 0.4 0.4 0 
0 0 0 0 0.4 0.4 0.4 0.4 0.4 
0 0 0 0 0 0 0 0 0 
0 0 0 0 0 0 0 0 0 
0 0 0 0 0 0 0 0 0 
0 0 0 0 0 0 0 0 0 
0 0 0 0 0 0 0 0 0 
0 0 0 0 0 0 0 0 0 
0 0 0 0 0 0 0 0 0 
0 0 0 0 0 0 0 0 0 
0 0 0 0 0 0 0 0 0 
0 0 0 0 0 0 0 0 0 
0 0 0 0 0 0 0 0 0 
0 0 0 0 0 0 0 0 0 
0 0 0 0 0 0 0 0 0 
0 0 0 0 0 0 0 0 0 
0 0 0 0 0 0 0 0 0 
0 0 0 1.4 1.4 1.4 1.4 1.4 0 
0 0 0 0 1.4 1.4 1.4 1.4 1.4 
1.4 1.4 0 0 0 1.4 1.4 1.4 1.4 
1.4 1.4 1.4 1.4 1.4 0 0 1.4 1.4 
1.4 1.4 1.4 1.4 1.4 1.4 1.4 0 0 
1.4 1.4 1.4 1.4 1.4 1.4 1.4 1.4 1.4 
1.4 0 1.4 1.4 1.4 1.4 1.4 1.4 1.4 
1.4 1.4 1.4 0 1.4 1.4 1.4 1.4 1.4 
1.4 1.4 1.4 1.4 0 0 1.4 1.4 1.4 
1.4 1.4 1.4 1.4 1.4 1.4 0 0 0 
1.4 1.4 1.4 1.4 1.4 1.4 1.4 0 0 
0 0 0 0 1.4 1.4 1.4 1.4 0 
0 0 0 0 0 0 0 0 0 
0 0 0 0 0 0 0 0 0 
0 0 0 0 0 0 0 0 0 
0 0 0 0 0 0 0 0 0 
0 0 0 0 0 0 0 0 0 
0 0 0 0 0 0 0 0 0 
0 0 0 0 0 0 0 0 0 
0 0 0 0 0 0 0 0 0 
0 0 0 0 0 0 0 0 0 
0 0 0 0 0 0 0 0 0 
0 0 0 0 0 0 0 0 0 
0 0 0 0 0 0 0 0 0 
0 0 0 0 0 0 0 0 0 
0 0 0 0 0 0 0 0 0 
0 0 0 0 0 0 0 0 0 
0 0 0.6 0.6 0.6 0.6 0.6 0 0 
0 0 0 0.6 0.6 0.6 0.6 0.6 0.6 
0.6 0 0 0 0.6 0.6 0.6 0.6 0.6 
0.6 0.6 0.6 0.6 0 0 0.6 0.6 0.6 
0.6 0.6 0.6 0.6 0.6 0.6 0 0 0.6 
0.6 0.6 0.6 0.6 0.6 0.6 0.6 0.6 0.6 
0 0.6 0.6 0.6 0.6 0.6 0.6 0.6 0.6 
0.6 0.6 0 0.6 0.6 0.6 0.6 0.6 0.6 
0.6 0.6 0.6 0 0 0.6 0.6 0.6 0.6 
0.6 0.6 0.6 0.6 0.6 0 0 0 0.6 
0.6 0.6 0.6 0.6 0.6 0.6 0 0 0 
0 0 0 0.6 0.6 0.6 0.6 0 0 
0 0 0 0 0 0.4 0.4 0.4 0 
0 0 0 0 0 0.4 0.4 0.4 0.4 
0.4 0.4 0.4 0 0 0 0.4 0.4 0.4 
0.4 0.4 0.4 0.4 0.4 0 0 0 0.4 
0.4 0.4 0.4 0.4 0.4 0.4 0.4 0.4 0 
0.4 0.4 0.4 0.4 0.4 0.4 0.4 0.4 0.4 
0.4 0 0.4 0.4 0.4 0.4 0.4 0.4 0.4 
0.4 0.4 0.4 0 0 0.4 0.4 0.4 0.4 
0.4 0.4 0.4 0.4 0.4 0 0 0.4 0.4 
0.4 0.4 0.4 0.4 0.4 0.4 0.4 0 0 
0.4 0.4 0.4 0.4 0.4 0.4 0.4 0.4 0 
0 0 0 0 0.4 0.4 0.4 0.4 0.4 
0 0 0 0 0 0 0 0 0 
0 0 0 0 0 0 0 0 0 
0 0 0 0 0 0 0 0 0 
0 0 0 0 0 0 0 0 0 
0 0 0 0 0 0 0 0 0 
0 0 0 0 0 0 0 0 0 
0 0 0 0 0 0 0 0 0 
0 0 0 0 0 0 0 0 0 
0 0 0 0 0 0 0 0 0 
0 0 0 0 0 0 0 0 0 
0 0 0 0 0 0 0 0 0 
0 0 0 0 0 0 0 0 0 
0 0 0 0 0 0 0 0 0 
0 0 0 0 0 0 0 0 0 
0 0 0 0 0 0 0 0 0 
0 0 0 0.1 0.1 0.1 0.1 0 0 
0 0 0 0 0.1 0.1 0.1 0.1 0.1 
0.1 0.1 0 0 0 0.1 0.1 0.1 0.1 
0.1 0.1 0.1 0.1 0.1 0 0 0.1 0.1 
0.1 0.1 0.1 0.1 0.1 0.1 0.1 0 0.1 
0.1 0.1 0.1 0.1 0.1 0.1 0.1 0.1 0.1 
0 0.1 0.1 0.1 0.1 0.1 0.1 0.1 0.1 
0.1 0.1 0 0 0.1 0.1 0.1 0.1 0.1 
0.1 0.1 0.1 0.1 0 0 0.1 0.1 0.1 
0.1 0.1 0.1 0.1 0.1 0.1 0 0 0 
0.1 0.1 0.1 0.1 0.1 0.1 0.1 0 0 
0 0 0 0.1 0.1 0.1 0.1 0.1 0 
0 0 0 0 0 0 0 0 0 
0 0 0 0 
VECTORS direction float
0 0 0 0 0 0 0 0 0 
0 0 0 0 0 0 0 0 0 
0 0 0 0 0 0 0 0 0 
0 0 0 0 0 0 0 0 0 
0 0 0 0 0 0 0 0 0 
0 0 0 0 0 0 0 0 0 
0 0 0 0 0 0 0 0 0 
0 0 0 0 0 0 0 0 0 
0 0 0 0 0 0 0 0 0 
0 0 0 0 0 0 0 0 0 
0 0 0 0 0 0 0 0 0 
0 0 0 0 0 0 0 0 0 
0 0 0 0 0 0 0 0 0 
0 0 0 0 0 0 0 0 0 
0 0 0 0 0 0 0 0 0 
0 0 0 0 0 0 0 0 0 
0 0 0 0 0 0 0 0 0 
0 0 0 0 0 0 0 0 0 
0 0 0 0 0 0 0 0 0 
0 0 0 0 0 0 0 0 0 
0 0 0 0 0 0 0 0 0 
0 0 0 0 0 0 0 0 0 
0 0 0 0 0 0 0 0 0 
0 0 0 0 0 0 0 0 0 
0 0 0 0 0 0 0 0 0 
0 0 0 0 0 0 0 0 0 
0 0 0 0 0 0 0 0 0 
0 0 0 0 0 0 0 0 0 
0 0 0 0 0 0 0 0 0 
0 0 0 0 0 0 0 0 0 
0 0 0 0 0 0 0 0 0 
0 0 0 0 0 0 0 0 0 
0 0 0 0 0 0 0 0 0 
0 0 0 0 0 0 0 0 0 
0 0 0 0 0 0 0 0 0 
0 0 0 0 0 0 0 0 0 
0 0 0 0 0 0 0 0 0 
0 0 0 0 0 0 0 0 0 
0 0 0 0 0 0 0 0 0 
0 0 0 0 0 0 0 0 0 
0 0 0 0 0 0 0 0 0 
0 0 0 0 0 0 0 0 0 
0 0 0 0 0 0 0 0 0 
0 0 0 0 0 0 0 0 0 
0 0 0 0 0 0 0 0 0 
0 0 0 0 0 0 0 0 0 
0 0 0 0 0 0 0 0 0 
0 0 0 0 0 0 0 0 0 
0 0 0 0 0 0 0 0 0 
0 0 0 0 0 0 0 0 0 
0 0 0 0 0 0 0 0 0 
0 0 0 0 0 0 0 0 0 
0 0 0 0 0 0 0 0 0 
0 0 0 0 0 0 0 0 0 
0 0 0 0 0 0 0 0 0 
0 0 0 0 0 0 0 0 0 
0 0 0 0 0 0 0 0 0 
0 0 0 0 0 0 0 0 0 
0 0 0 0 0 0 0 0 0 
0 0 0 0 0 0 0 0 0 
0 0 0 0 0 0 0 0 0 
0 0 0 0 0 0 0 0 0 
0 0 0 0 0 0 0 0 0 
0 0 0 0 0 0 0 0 0 
0 0 0 0 0 0 0 0 0 
0 0 0 0 0 0 0 0 0 
0 0 0 0 0 0 0 0 0 
0 0 0 0 0 0 0 0 0 
0 0 0 0 0 0 0 0 0 
0 0 0 0 0 0 0 0 0 
0 0 0 0 0 0 0 0 0 
0 0 0 0 0 0 0 0 0 
0 0 0 0 0 0 0 0 0 
0 0 0 0 0 0 0 0 0 
0 0 0 0 0 0 0 0 0 
0 0 0 0 0 0 0 0 0 
0 0 0 0 0 0 0 0 0 
0 0 0 0 0 0 0 0 0 
0 0 0 0 0 0 0 0 0 
0 0 0 0 0 0 0 0 0 
0 0 0 0 0 0 0 0 0 
0 0 0 0 0 0 0 0 0 
0 0 0 0 0 0 0 0 0 
0 0 0 0 0 0 0 0 0 
0 0 0 0 0 0 0 0 0 
0 0 0 0 0 0 0 0 0 
0 0 0 0 0 0 0 0 0 
0 0 0 0 0 0 0 0 0 
0 0 0 0 0 0 0 0 0 
0 0 0 0 0 0 0 0 0 
0 0 0 0 0 0 0 0 0 
0 0 0 0 0 0 0 0 0 
0 0 0 0 0 0 0 0 0 
0 0 0 0 0 0 0 0 0 
0 0 0 0 0 0 0 0 0 
0 0 0 0 0 0 0 0 0 
0 0 0 0 0 0 0 0 0 
0 0 0 0 0 0 0 0 0 
0 0 0 0 0 0 0 0 0 
0 0 0 0 0 0 0 0 0 
0 0 0 0 0 0 0 0 0 
0 0 0 0 0 0 0 0 0 
0 0 0 0 0 0 0 0 0 
0 0 0 0 0 0 0 0 0 
0 0 0 0 0 0 0 0 0 
0 0 0 0 0 0 0 0 0 
0 0 0 0 0 0 0 0 0 
0 0 0 0 0 0 0 0 0 
0 0 0 0 0 0 0 0 0 
0 0 0 0 0 0 0 0 0 
0 0 0 0 0 0 0 0 0 
0 0 0 0 0 0 0 0 0 
0 0 0 0 0 0 0 0 0 
0 0 0 0 0 0 0 0 0 
0 0 0 0 0 0 0 0 0 
0 0 0 0 0 0 0 0 0 
0 0 0 0 0 0 0 0 0 
0 0 0 0 0 0 0 0 0 
0 0 0 0 0 0 0 0 0 
0 0 0 0 0 0 0 0 0 
0 0 0 0 0 0 0 0 0 
0 0 0 0 0 0 0 0 0 
0 0 0 0 0 0 0 0 0 
0 0 0 0 0 0 0 0 0 
0 0 0 0 0 0 0 0 0 
0 0 0 0 0 0 0 0 0 
0 0 0 0 0 0 0 0 0 
0 0 0 0 0 0 0 0 0 
0 0 0 0 0 0 0 0 0 
0 0 0 0 0 0 0 0 0 
0 0 0 0 0 0 0 0 0 
0 0 0 0 0 0 0 0 0 
0 0 0 0 0 0 0 0 0 
0 0 0 0 0 0 0 0 0 
0 0 0 0 0 0 0 0 0 
0 0 0 0 0 0 0 0 0 
0 0 0 0 0 0 0 0 0 
0 0 0 0 0 0 0 0 0 
0 0 0 0 0 0 0 0 0 
0 0 0 0 0 0 0 0 0 
0 0 0 0 0 0 0 0 0 
0 0 0 0 0 0 0 0 0 
0 0 0 0 0 0 0 0 0 
0 0 0 0 0 0 0 0 0 
0 0 0 0 0 0 0 0 0 
0 0 0 0 0 0 0 0 0 
0 0 0 0 0 0 0 0 0 
0 0 0 0 0 0 0 0 0 
0 0 0 0 0 0 0 0 0 
0 0 0 0 0 0 0 0 0 
0 0 0 0 0 0 0 0 0 
0 0 0 0 0 0 0 0 0 
0 0 0 0 0 0 0 0 0 
0 0 0 0 0 0 0 0 0 
0 0 0 0 0 0 0 0 0 
0 0 0 0 0 0 0 0 0 
0 0 0 0 0 0 0 0 0 
0 0 0 0 0 0 0 0 0 
0 0 0 0 0 0 0 0 0 
0 0 0 0 0 0 0 0 0 
0 0 0 0 0 0 0 0 0 
0 0 0 0 0 0 0 0 0 
0 0 0 0 0 0 0 0 0 
0 0 0 0 0 0 0 0 0 
0 0 0 0 0 0 0 0 0 
0 0 0 0 0 0 0 0 0 
0 0 0 0 0 0 0 0 0 
0 0 0 0 0 0 0 0 0 
0 0 0 0 0 0 0 0 0 
0 0 0 0 0 0 0 0 0 
0 0 0 0 0 0 0 0 0 
0 0 0 0 0 0 0 0 0 
0 0 0 0 0 0 0 0 0 
0 0 0 0 0 0 0 0 0 
0 0 0 0 0 0 0 0 0 
0 0 0 0 0 0 0 0 0 
0 0 0 0 0 0 0 0 0 
0 0 0 0 0 0 0 0 0 
0 0 0 0 0 0 0 0 0 
0 0 0 0 0 0 0 0 0 
0 0 0 0 0 0 0 0 0 
0 0 0 0 0 0 0 0 0 
0 0 0 0 0 0 0 0 0 
0 0 0 0 0 0 0 0 0 
0 0 0 0 0 0 0 0 0 
0 0 0 0 0 0 0 0 0 
0 0 0 0 0 0 0 0 0 
0 0 0 0 0 0 0 0 0 
0 0 0 0 0 0 0 0 0 
0 0 0 0 0 0 0 0 0 
0 0 0 0 0 0 0 0 0 
0 0 0 0 0 0 0 0 0 
0 0 0 0 0 0 0 0 0 
0 0 0 0 0 0 0 0 0 
0 0 0 0 0 0 0 0 0 
0 0 0 0 0 0 0 0 0 
0 0 0 0 0 0 0 0 0 
0 0 0 0 0 0 0 0 0 
0 0 0 0 0 0 0 0 0 
0 0 0 0 0 0 0 0 0 
0 0 0 0 0 0 0 0 0 
0 0 0 0 0 0 0 0 0 
0 0 0 0 0 0 0 0 0 
0 0 0 0 0 0 0 0 0 
0 0 0 0 0 0 0 0 0 
0 0 0 0 0 0 0 0 0 
0 0 0 0 0 0 0 0 0 
0 0 0 0 0 0 0 0 0 
0 0 0 0 0 0 0 0 0 
0 0 0 0 0 0 0 0 0 
0 0 0 0 0 0 0 0 0 
0 0 0 0 0 0 0 0 0 
0 0 0 0 0 0 0 0 0 
0 0 0 0 0 0 0 0 0 
0 0 0 0 0 0 0 0 0 
0 0 0 0 0 0 0 0 0 
0 0 0 0 0 0 0 0 0 
0 0 0 0 0 0 0 0 0 
0 0 0 0 0 0 0 0 0 
0 0 0 0 0 0 0 0 0 
0 0 0 0 0 0 0 0 0 
0 0 0 0 0 0 0 0 0 
0 0 0 0 0 0 0 0 0 
0 0 0 0 0 0 0 0 0 
0 0 0 0 0 0 0 0 0 
0 0 0 0 0 0 0 0 0 
0 0 0 0 0 0 0 0 0 
0 0 0 0 0 0 0 0 0 
0 0 0 0 0 0 0 0 0 
0 0 0 0 0 0 0 0 0 
0 0 0 0 0 0 0 0 0 
0 0 0 0 0 0 0 0 0 
0 0 0 0 0 0 0 0 0 
0 0 0 0 0 0 0 0 0 
0 0 0 0 0 0 0 0 0 
0 0 0 0 0 0 0 0 0 
0 0 0 0 0 0 0 0 0 
0 0 0 0 0 0 0 0 0 
0 0 0 0 0 0 0 0 0 
0 0 0 0 0 0 0 0 0 
0 0 0 0 0 0 0 0 0 
0 0 0 0 0 0 0 0 0 
0 0 0 0 0 0 0 0 0 
0 0 0 0 0 0 0 0 0 
0 0 0 0 0 0 0 0 0 
0 0 0 0 0 0 0 0 0 
0 0 0 0 0 0 0 0 0 
0 0 0 0 0 0 0 0 0 
0 0 0 0 0 0 0 0 0 
0 0 0 0 0 0 0 0 0 
0 0 0 0 0 0 0 0 0 
0 0 0 0 0 0 0 0 0 
0 0 0 0 0 0 0 0 0 
0 0 0 0 0 0 0 0 0 
0 0 0 0 0 0 0 0 0 
0 0 0 0 0 0 0 0 0 
0 0 0 0 0 0 0 0 0 
0 0 0 0 0 0 0 0 0 
0 0 0 0 0 0 0 0 0 
0 0 0 0 0 0 0 0 0 
0 0 0 0 0 0 0 0 0 
0 0 0 0 0 0 0 0 0 
0 0 0 0 0 0 0 0 0 
0 0 0 0 0 0 0 0 0 
0 0 0 0 0 0 0 0 0 
0 0 0 0 0 0 0 0 0 
0 0 0 0 0 0 0 0 0 
0 0 0 0 0 0 0 0 0 
0 0 0 0 0 0 0 0 0 
0 0 0 0 0 0 0 0 0 
0 0 0 0 0 0 0 0 0 
0 0 0 0 0 0 0 0 0 
0 0 0 0 0 0 0 0 0 
0 0 0 0 0 0 0 0 0 
0 0 0 0 0 0 0 0 0 
0 0 0 0 0 0 0 0 0 
0 0 0 0 0 0 0 0 0 
0 0 0 0 0 0 0 0 0 
0 0 0 0 0 0 0 0 0 
0 0 0 0 0 0 0 0 0 
0 0 0 0 0 0 0 0 0 
0 0 0 0 0 0 0 0 0 
0 0 0 0 0 0 0 0 0 
0 0 0 0 0 0 0 0 0 
0 0 0 0 0 0 0 0 0 
0 0 0 0 0 0 0 0 0 
0 0 0 0 0 0 0 0 0 
0 0 0 0 0 0 0 0 0 
0 0 0 0 0 0 0 0 0 
0 0 0 0 0 0 0 0 0 
0 0 0 0 0 0 0 0 0 
0 0 0 0 0 0 0 0 0 
0 0 0 0 0 0 0 0 0 
0 0 0 0 0 0 0 0 0 
0 0 0 0 0 0 0 0 0 
0 0 0 0 0 0 0 0 0 
0 0 0 0 0 0 0 0 0 
0 0 0 0 0 0 0 0 0 
0 0 0 0 0 0 0 0 0 
0 0 0 0 0 0 0 0 0 
0 0 0 0 0 0 0 0 0 
0 0 0 0 0 0 0 0 0 
0 0 0 0 0 0 0 0 0 
0 0 0 0 0 0 0 0 0 
0 0 0 0 0 0 0 0 0 
0 0 0 0 0 0 0 0 0 
0 0 0 0 0 0 0 0 0 
0 0 0 0 0 0 0 0 0 
0 0 0 0 0 0 0 0 0 
0 0 0 0 0 0 0 0 0 
0 0 0 0 0 0 0 0 0 
0 0 0 0 0 0 0 0 0 
0 0 0 0 0 0 0 0 0 
0 0 0 0 0 0 0 0 0 
0 0 0 0 0 0 0 0 0 
0 0 0 0 0 0 0 0 0 
0 0 0 0 0 0 0 0 0 
0 0 0 0 0 0 0 0 0 
0 0 0 0 0 0 0 0 0 
0 0 0 0 0 0 0 0 0 
0 0 0 0 0 0 0 0 0 
0 0 0 0 0 0 0 0 0 
0 0 0 0 0 0 0 0 0 
0 0 0 0 0 0 0 0 0 
0 0 0 0 0 0 0 0 0 
0 0 0 0 0 0 0 0 0 
0 0 0 0 0 0 0 0 0 
0 0 0 0 0 0 0 0 0 
0 0 0 0 0 0 0 0 0 
0 0 0 0 0 0 0 0 0 
0 0 0 0 0 0 0 0 0 
0 0 0 0 0 0 0 0 0 
0 0 0 0 0 0 0 0 0 
0 0 0 0 0 0 0 0 0 
0 0 0 0 0 0 0 0 0 
0 0 0 0 0 0 0 0 0 
0 0 0 0 0 0 0 0 0 
0 0 0 0 0 0 0 0 0 
0 0 0 0 0 0 0 0 0 
0 0 0 0 0 0 0 0 0 
0 0 0 0 0 0 0 0 0 
0 0 0 0 0 0 0 0 0 
0 0 0 0 0 0 0 0 0 
0 0 0 0 0 0 0 0 0 
0 0 0 0 0 0 0 0 0 
0 0 0 0 0 0 0 0 0 
0 0 0 0 0 0 0 0 0 
0 0 0 0 0 0 0 0 0 
0 0 0 0 0 0 0 0 0 
0 0 0 0 0 0 0 0 0 
0 0 0 0 0 0 0 0 0 
0 0 0 0 0 0 0 0 0 
0 0 0 0 0 0 0 0 0 
0 0 0 0 0 0 0 0 0 
0 0 0 0 0 0 0 0 0 
0 0 0 0 0 0 0 0 0 
0 0 0 0 0 0 0 0 0 
0 0 0 0 0 0 0 0 0 
0 0 0 0 0 0 0 0 0 
0 0 0 0 0 0 0 0 0 
0 0 0 0 0 0 0 0 0 
0 0 0 0 0 0 0 0 0 
0 0 0 0 0 0 0 0 0 
0 0 0 0 0 0 0 0 0 
0 0 0 0 0 0 0 0 0 
0 0 0 0 0 0 0 0 0 
0 0 0 0 0 0 0 0 0 
0 0 0 0 0 0 0 0 0 
0 0 0 0 0 0 0 0 0 
0 0 0 0 0 0 0 0 0 
0 0 0 0 0 0 0 0 0 
0 0 0 0 0 0 0 0 0 
0 0 0 0 0 0 0 0 0 
0 0 0 0 0 0 0 0 0 
0 0 0 0 0 0 0 0 0 
0 0 0 0 0 0 0 0 0 
0 0 0 0 0 0 0 0 0 
0 0 0 0 0 0 0 0 0 
0 0 0 0 0 0 0 0 0 
0 0 0 0 0 0 0 0 0 
0 0 0 0 0 0 0 0 0 
0 0 0 0 0 0 0 0 0 
0 0 0 0 0 0 0 0 0 
0 0 0 0 0 0 0 0 0 
0 0 0 0 0 0 0 0 0 
0 0 0 0 0 0 0 0 0 
0 0 0 0 0 0 0 0 0 
0 0 0 0 0 0 0 0 0 
0 0 0 0 0 0 0 0 0 
0 0 0 0 0 0 0 0 0 
0 0 0 0 0 0 0 0 0 
0 0 0 0 0 0 0 0 0 
0 0 0 0 0 0 0 0 0 
0 0 0 0 0 0 0 0 0 
0 0 0 0 0 0 0 0 0 
0 0 0 0 0 0 0 0 0 
0 0 0 0 0 0 0 0 0 
0 0 0 0 0 0 0 0 0 
0 0 0 0 0 0 0 0 0 
0 0 0 0 0 0 0 0 0 
0 0 0 0 0 0 0 0 0 
0 0 0 0 0 0 0 0 0 
0 0 0 0 0 0 0 0 0 
0 0 0 
FIELD FieldData 1
id 1 1210 float
42578 42578 42578 42578 42578 42578 42578 42578 42578 
42578 42578 42578 42578 42578 42578 42578 42578 42578 
42578 42578 42578 42578 42578 42578 42578 42578 42578 
42578 42578 42578 42578 42578 42578 42578 42578 42578 
42578 42578 42578 42578 42578 42578 42578 42578 42578 
42578 42578 42578 42578 42578 42578 42578 42578 42578 
42578 42578 42578 42578 42578 42578 42578 42578 42578 
42578 42578 42578 42578 42578 42578 42578 42578 42578 
42578 42578 42578 42578 42578 42578 42578 42578 42578 
42578 42578 42578 42578 42578 42578 42578 42578 42578 
42578 42578 42578 42578 42578 42578 42578 42578 42578 
42578 42578 42578 42578 42578 42578 42578 42578 42578 
42578 42578 42578 42578 42578 42578 42578 42578 42578 
42578 42578 42578 42578 25048 25048 25048 25048 25048 
25048 25048 25048 25048 25048 25048 25048 25048 25048 
25048 25048 25048 25048 25048 25048 25048 25048 25048 
25048 25048 25048 25048 25048 25048 25048 25048 25048 
25048 25048 25048 25048 25048 25048 25048 25048 25048 
25048 25048 25048 25048 25048 25048 25048 25048 25048 
25048 25048 25048 25048 25048 25048 25048 25048 25048 
25048 25048 25048 25048 25048 25048 25048 25048 25048 
25048 25048 25048 25048 25048 25048 25048 25048 25048 
25048 25048 25048 25048 25048 25048 25048 25048 25048 
25048 25048 25048 25048 25048 25048 25048 25048 25048 
25048 25048 25048 25048 25048 25048 25048 25048 25048 
25048 25048 25048 25048 25048 25048 25048 25048 25048 
25048 25048 25048 25048 25048 25048 25048 25048 32069 
32069 32069 32069 32069 32069 32069 32069 32069 32069 
32069 32069 32069 32069 32069 32069 32069 32069 32069 
32069 32069 32069 32069 32069 32069 32069 32069 32069 
32069 32069 32069 32069 32069 32069 32069 32069 32069 
32069 32069 32069 32069 32069 32069 32069 32069 32069 
32069 32069 32069 32069 32069 32069 32069 32069 32069 
32069 32069 32069 32069 32069 32069 32069 32069 32069 
32069 32069 32069 32069 32069 32069 32069 32069 32069 
32069 32069 32069 32069 32069 32069 32069 32069 32069 
32069 32069 32069 32069 32069 32069 32069 32069 32069 
32069 32069 32069 32069 32069 32069 32069 32069 32069 
32069 32069 32069 32069 32069 32069 32069 32069 32069 
32069 32069 32069 32069 32069 32069 32069 32069 32069 
32069 32069 32069 42578 42578 42578 42578 42578 42578 
42578 42578 42578 42578 42578 42578 42578 42578 42578 
42578 42578 42578 42578 42578 42578 42578 42578 42578 
42578 42578 42578 42578 42578 42578 42578 42578 42578 
42578 42578 42578 42578 42578 42578 42578 42578 42578 
42578 42578 42578 42578 42578 42578 42578 42578 42578 
42578 42578 42578 42578 42578 42578 42578 42578 42578 
42578 42578 42578 42578 42578 42578 42578 42578 42578 
42578 42578 42578 42578 42578 42578 42578 42578 42578 
42578 42578 42578 42578 42578 42578 42578 42578 42578 
42578 42578 42578 42578 42578 42578 42578 42578 42578 
42578 42578 42578 42578 42578 42578 42578 42578 42578 
42578 42578 42578 42578 42578 42578 42578 42578 42578 
42578 42578 42578 42578 42578 42578 42578 5085 5085 
5085 5085 5085 5085 5085 5085 5085 5085 5085 
5085 5085 5085 5085 5085 5085 5085 5085 5085 
5085 5085 5085 5085 5085 5085 5085 5085 5085 
5085 5085 5085 5085 5085 5085 5085 5085 5085 
5085 5085 5085 5085 5085 5085 5085 5085 5085 
5085 5085 5085 5085 5085 5085 5085 5085 5085 
5085 5085 5085 5085 5085 5085 5085 5085 5085 
5085 5085 5085 5085 5085 5085 5085 5085 5085 
5085 5085 5085 5085 5085 5085 5085 5085 5085 
5085 5085 5085 5085 5085 5085 5085 5085 5085 
5085 5085 5085 5085 5085 5085 5085 5085 5085 
5085 5085 5085 5085 5085 5085 5085 5085 5085 
5085 5085 5085 5085 5085 5085 5085 5085 5085 
5085 5085 52771 52771 52771 52771 52771 52771 52771 
52771 52771 52771 52771 52771 52771 52771 52771 52771 
52771 52771 52771 52771 52771 52771 52771 52771 52771 
52771 52771 52771 52771 52771 52771 52771 52771 52771 
52771 52771 52771 52771 52771 52771 52771 52771 52771 
52771 52771 52771 52771 52771 52771 52771 52771 52771 
52771 52771 52771 52771 52771 52771 52771 52771 52771 
52771 52771 52771 52771 52771 52771 52771 52771 52771 
52771 52771 52771 52771 52771 52771 52771 52771 52771 
52771 52771 52771 52771 52771 52771 52771 52771 52771 
52771 52771 52771 52771 52771 52771 52771 52771 52771 
52771 52771 52771 52771 52771 52771 52771 52771 52771 
52771 52771 52771 52771 52771 52771 52771 52771 52771 
52771 52771 52771 52771 52771 52771 6747 6747 6747 
6747 6747 6747 6747 6747 6747 6747 6747 6747 
6747 6747 6747 6747 6747 6747 6747 6747 6747 
6747 6747 6747 6747 6747 6747 6747 6747 6747 
6747 6747 6747 6747 6747 6747 6747 6747 6747 
6747 6747 6747 6747 6747 6747 6747 6747 6747 
6747 6747 6747 6747 6747 6747 6747 6747 6747 
6747 6747 6747 6747 6747 6747 6747 6747 6747 
6747 6747 6747 6747 6747 6747 6747 6747 6747 
6747 6747 6747 6747 6747 6747 6747 6747 6747 
6747 6747 6747 6747 6747 6747 6747 6747 6747 
6747 6747 6747 6747 6747 6747 6747 6747 6747 
6747 6747 6747 6747 6747 6747 6747 6747 6747 
6747 6747 6747 6747 6747 6747 6747 6747 6747 
6747 5281 5281 5281 5281 5281 5281 5281 5281 
5281 5281 5281 5281 5281 5281 5281 5281 5281 
5281 5281 5281 5281 5281 5281 5281 5281 5281 
5281 5281 5281 5281 5281 5281 5281 5281 5281 
5281 5281 5281 5281 5281 5281 5281 5281 5281 
5281 5281 5281 5281 5281 5281 5281 5281 5281 
5281 5281 5281 5281 5281 5281 5281 5281 5281 
5281 5281 5281 5281 5281 5281 5281 5281 5281 
5281 5281 5281 5281 5281 5281 5281 5281 5281 
5281 5281 5281 5281 5281 5281 5281 5281 5281 
5281 5281 5281 5281 5281 5281 5281 5281 5281 
5281 5281 5281 5281 5281 5281 5281 5281 5281 
5281 5281 5281 5281 5281 5281 5281 5281 5281 
5281 5281 5281 5281 5281 40001 40001 40001 40001 
40001 40001 40001 40001 40001 40001 40001 40001 40001 
40001 40001 40001 40001 40001 40001 40001 40001 40001 
40001 40001 40001 40001 40001 40001 40001 40001 40001 
40001 40001 40001 40001 40001 40001 40001 40001 40001 
40001 40001 40001 40001 40001 40001 40001 40001 40001 
40001 40001 40001 40001 40001 40001 40001 40001 40001 
40001 40001 40001 40001 40001 40001 40001 40001 40001 
40001 40001 40001 40001 40001 40001 40001 40001 40001 
40001 40001 40001 40001 40001 40001 40001 40001 40001 
40001 40001 40001 40001 40001 40001 40001 40001 40001 
40001 40001 40001 40001 40001 40001 40001 40001 40001 
40001 40001 40001 40001 40001 40001 40001 40001 40001 
40001 40001 40001 40001 40001 40001 40001 40001 40001 
29318 29318 29318 29318 29318 29318 29318 29318 29318 
29318 29318 29318 29318 29318 29318 29318 29318 29318 
29318 29318 29318 29318 29318 29318 29318 29318 29318 
29318 29318 29318 29318 29318 29318 29318 29318 29318 
29318 29318 29318 29318 29318 29318 29318 29318 29318 
29318 29318 29318 29318 29318 29318 29318 29318 29318 
29318 29318 29318 29318 29318 29318 29318 29318 29318 
29318 29318 29318 29318 29318 29318 29318 29318 29318 
29318 29318 29318 29318 29318 29318 29318 29318 29318 
29318 29318 29318 29318 29318 29318 29318 29318 29318 
29318 29318 29318 29318 29318 29318 29318 29318 29318 
29318 29318 29318 29318 29318 29318 29318 29318 29318 
29318 29318 29318 29318 29318 29318 29318 29318 29318 
29318 29318 29318 29318 
