# vtk DataFile Version 5.1
vtk output
ASCII
DATASET UNSTRUCTURED_GRID
POINTS 14 double
944996.29053 1952014.2211 0 944997.00302 1952022.0585 0 944999.61547 1952021.821 0 
944999.85297 1952026.8084 0 944997.59676 1952026.9271 0 944998.1905 1952032.7458 0 
945004.72162 1952032.5083 0 945004.72162 1952028.7083 0 945011.72774 1952028.3521 0 
945012.91521 1952043.1956 0 945005.9091 1952043.7893 0 945005.55286 1952040.5831 0 
944998.78424 1952041.1769 0 945000.32796 1952059.8202 0 
METADATA
INFORMATION 2
NAME L2_NORM_RANGE LOCATION vtkDataArray
DATA 2 2.16873e+06 2.16877e+06 
NAME L2_NORM_FINITE_RANGE LOCATION vtkDataArray
DATA 2 2.16873e+06 2.16877e+06 

CELLS 2 14
OFFSETS vtktypeint64
0 14 
CONNECTIVITY vtktypeint64
0 1 2 3 4 5 6 7 8 
9 10 11 12 13 
CELL_TYPES 1
4

CELL_DATA 1
FIELD FieldData 1
id 1 1 string


