# vtk DataFile Version 5.1
vtk output
ASCII
DATASET UNSTRUCTURED_GRID
POINTS 530 double
944860 1952170 0 945150 1952170 0 944860 1952168 0 
945150 1952168 0 944860 1952166 0 945150 1952166 0 
944860 1952164 0 945150 1952164 0 944860 1952162 0 
945150 1952162 0 944860 1952160 0 945150 1952160 0 
944860 1952158 0 945150 1952158 0 944860 1952156 0 
945150 1952156 0 944860 1952154 0 945150 1952154 0 
944860 1952152 0 945150 1952152 0 944860 1952150 0 
945150 1952150 0 944860 1952148 0 945150 1952148 0 
944860 1952146 0 945150 1952146 0 944860 1952144 0 
945150 1952144 0 944860 1952142 0 945150 1952142 0 
944860 1952140 0 945150 1952140 0 944860 1952138 0 
945150 1952138 0 944860 1952136 0 945150 1952136 0 
944860 1952134 0 945150 1952134 0 944860 1952132 0 
945150 1952132 0 944860 1952130 0 945150 1952130 0 
944860 1952128 0 945150 1952128 0 944860 1952126 0 
945150 1952126 0 944860 1952124 0 945150 1952124 0 
944860 1952122 0 945150 1952122 0 944860 1952120 0 
945150 1952120 0 944860 1952118 0 945150 1952118 0 
944860 1952116 0 945150 1952116 0 944860 1952114 0 
945150 1952114 0 944860 1952112 0 945150 1952112 0 
944860 1952110 0 945150 1952110 0 944860 1952108 0 
945150 1952108 0 944860 1952106 0 945150 1952106 0 
944860 1952104 0 945150 1952104 0 944860 1952102 0 
945150 1952102 0 944860 1952100 0 945150 1952100 0 
944860 1952098 0 945150 1952098 0 944860 1952096 0 
945150 1952096 0 944860 1952094 0 945150 1952094 0 
944860 1952092 0 945150 1952092 0 944860 1952090 0 
945150 1952090 0 944860 1952088 0 945150 1952088 0 
944860 1952086 0 945150 1952086 0 944860 1952084 0 
945150 1952084 0 944860 1952082 0 945150 1952082 0 
944860 1952080 0 945150 1952080 0 944860 1952078 0 
945150 1952078 0 944860 1952076 0 945150 1952076 0 
944860 1952074 0 945150 1952074 0 944860 1952072 0 
945150 1952072 0 944860 1952070 0 945150 1952070 0 
944860 1952068 0 945150 1952068 0 944860 1952066 0 
945150 1952066 0 944860 1952064 0 945150 1952064 0 
944860 1952062 0 945150 1952062 0 944860 1952060 0 
945150 1952060 0 944860 1952058 0 945150 1952058 0 
944860 1952056 0 945150 1952056 0 944860 1952054 0 
945150 1952054 0 944860 1952052 0 945150 1952052 0 
944860 1952050 0 945150 1952050 0 944860 1952048 0 
945150 1952048 0 944860 1952046 0 945150 1952046 0 
944860 1952044 0 945150 1952044 0 944860 1952042 0 
945150 1952042 0 944860 1952040 0 945150 1952040 0 
944860 1952038 0 945150 1952038 0 944860 1952036 0 
945150 1952036 0 944860 1952034 0 945150 1952034 0 
944860 1952032 0 945150 1952032 0 944860 1952030 0 
945150 1952030 0 944860 1952028 0 945150 1952028 0 
944860 1952026 0 945150 1952026 0 944860 1952024 0 
945150 1952024 0 944860 1952022 0 945150 1952022 0 
944860 1952020 0 945150 1952020 0 944860 1952018 0 
945150 1952018 0 944860 1952016 0 945150 1952016 0 
944860 1952014 0 945150 1952014 0 944860 1952012 0 
945150 1952012 0 944860 1952010 0 945150 1952010 0 
944860 1952008 0 945150 1952008 0 944860 1952006 0 
945150 1952006 0 944860 1952004 0 945150 1952004 0 
944860 1952002 0 945150 1952002 0 944860 1952000 0 
945150 1952000 0 944860 1951998 0 945150 1951998 0 
944860 1951996 0 945150 1951996 0 944860 1951994 0 
945150 1951994 0 944860 1951992 0 945150 1951992 0 
944860 1951990 0 945150 1951990 0 944860 1951988 0 
945150 1951988 0 944860 1951986 0 945150 1951986 0 
944860 1951984 0 945150 1951984 0 944860 1951982 0 
945150 1951982 0 944860 1951980 0 945150 1951980 0 
944860 1951978 0 945150 1951978 0 944860 1951976 0 
945150 1951976 0 944860 1951974 0 945150 1951974 0 
944860 1951972 0 945150 1951972 0 944860 1951970 0 
945150 1951970 0 944860 1951968 0 945150 1951968 0 
944860 1951966 0 945150 1951966 0 944860 1951964 0 
945150 1951964 0 944860 1951962 0 945150 1951962 0 
944860 1951960 0 945150 1951960 0 944860 1951958 0 
945150 1951958 0 944860 1951956 0 945150 1951956 0 
944860 1951954 0 945150 1951954 0 944860 1951952 0 
945150 1951952 0 944860 1951950 0 945150 1951950 0 
944860 1951948 0 945150 1951948 0 944860 1951946 0 
945150 1951946 0 944860 1951944 0 945150 1951944 0 
944860 1951942 0 945150 1951942 0 944860 1951940 0 
945150 1951940 0 944860 1951938 0 945150 1951938 0 
944860 1951936 0 945150 1951936 0 944860 1951934 0 
945150 1951934 0 944860 1951932 0 945150 1951932 0 
944860 1951930 0 945150 1951930 0 944862 1952170 0 
944862 1951930 0 944864 1952170 0 944864 1951930 0 
944866 1952170 0 944866 1951930 0 944868 1952170 0 
944868 1951930 0 944870 1952170 0 944870 1951930 0 
944872 1952170 0 944872 1951930 0 944874 1952170 0 
944874 1951930 0 944876 1952170 0 944876 1951930 0 
944878 1952170 0 944878 1951930 0 944880 1952170 0 
944880 1951930 0 944882 1952170 0 944882 1951930 0 
944884 1952170 0 944884 1951930 0 944886 1952170 0 
944886 1951930 0 944888 1952170 0 944888 1951930 0 
944890 1952170 0 944890 1951930 0 944892 1952170 0 
944892 1951930 0 944894 1952170 0 944894 1951930 0 
944896 1952170 0 944896 1951930 0 944898 1952170 0 
944898 1951930 0 944900 1952170 0 944900 1951930 0 
944902 1952170 0 944902 1951930 0 944904 1952170 0 
944904 1951930 0 944906 1952170 0 944906 1951930 0 
944908 1952170 0 944908 1951930 0 944910 1952170 0 
944910 1951930 0 944912 1952170 0 944912 1951930 0 
944914 1952170 0 944914 1951930 0 944916 1952170 0 
944916 1951930 0 944918 1952170 0 944918 1951930 0 
944920 1952170 0 944920 1951930 0 944922 1952170 0 
944922 1951930 0 944924 1952170 0 944924 1951930 0 
944926 1952170 0 944926 1951930 0 944928 1952170 0 
944928 1951930 0 944930 1952170 0 944930 1951930 0 
944932 1952170 0 944932 1951930 0 944934 1952170 0 
944934 1951930 0 944936 1952170 0 944936 1951930 0 
944938 1952170 0 944938 1951930 0 944940 1952170 0 
944940 1951930 0 944942 1952170 0 944942 1951930 0 
944944 1952170 0 944944 1951930 0 944946 1952170 0 
944946 1951930 0 944948 1952170 0 944948 1951930 0 
944950 1952170 0 944950 1951930 0 944952 1952170 0 
944952 1951930 0 944954 1952170 0 944954 1951930 0 
944956 1952170 0 944956 1951930 0 944958 1952170 0 
944958 1951930 0 944960 1952170 0 944960 1951930 0 
944962 1952170 0 944962 1951930 0 944964 1952170 0 
944964 1951930 0 944966 1952170 0 944966 1951930 0 
944968 1952170 0 944968 1951930 0 944970 1952170 0 
944970 1951930 0 944972 1952170 0 944972 1951930 0 
944974 1952170 0 944974 1951930 0 944976 1952170 0 
944976 1951930 0 944978 1952170 0 944978 1951930 0 
944980 1952170 0 944980 1951930 0 944982 1952170 0 
944982 1951930 0 944984 1952170 0 944984 1951930 0 
944986 1952170 0 944986 1951930 0 944988 1952170 0 
944988 1951930 0 944990 1952170 0 944990 1951930 0 
944992 1952170 0 944992 1951930 0 944994 1952170 0 
944994 1951930 0 944996 1952170 0 944996 1951930 0 
944998 1952170 0 944998 1951930 0 945000 1952170 0 
945000 1951930 0 945002 1952170 0 945002 1951930 0 
945004 1952170 0 945004 1951930 0 945006 1952170 0 
945006 1951930 0 945008 1952170 0 945008 1951930 0 
945010 1952170 0 945010 1951930 0 945012 1952170 0 
945012 1951930 0 945014 1952170 0 945014 1951930 0 
945016 1952170 0 945016 1951930 0 945018 1952170 0 
945018 1951930 0 945020 1952170 0 945020 1951930 0 
945022 1952170 0 945022 1951930 0 945024 1952170 0 
945024 1951930 0 945026 1952170 0 945026 1951930 0 
945028 1952170 0 945028 1951930 0 945030 1952170 0 
945030 1951930 0 945032 1952170 0 945032 1951930 0 
945034 1952170 0 945034 1951930 0 945036 1952170 0 
945036 1951930 0 945038 1952170 0 945038 1951930 0 
945040 1952170 0 945040 1951930 0 945042 1952170 0 
945042 1951930 0 945044 1952170 0 945044 1951930 0 
945046 1952170 0 945046 1951930 0 945048 1952170 0 
945048 1951930 0 945050 1952170 0 945050 1951930 0 
945052 1952170 0 945052 1951930 0 945054 1952170 0 
945054 1951930 0 945056 1952170 0 945056 1951930 0 
945058 1952170 0 945058 1951930 0 945060 1952170 0 
945060 1951930 0 945062 1952170 0 945062 1951930 0 
945064 1952170 0 945064 1951930 0 945066 1952170 0 
945066 1951930 0 945068 1952170 0 945068 1951930 0 
945070 1952170 0 945070 1951930 0 945072 1952170 0 
945072 1951930 0 945074 1952170 0 945074 1951930 0 
945076 1952170 0 945076 1951930 0 945078 1952170 0 
945078 1951930 0 945080 1952170 0 945080 1951930 0 
945082 1952170 0 945082 1951930 0 945084 1952170 0 
945084 1951930 0 945086 1952170 0 945086 1951930 0 
945088 1952170 0 945088 1951930 0 945090 1952170 0 
945090 1951930 0 945092 1952170 0 945092 1951930 0 
945094 1952170 0 945094 1951930 0 945096 1952170 0 
945096 1951930 0 945098 1952170 0 945098 1951930 0 
945100 1952170 0 945100 1951930 0 945102 1952170 0 
945102 1951930 0 945104 1952170 0 945104 1951930 0 
945106 1952170 0 945106 1951930 0 945108 1952170 0 
945108 1951930 0 945110 1952170 0 945110 1951930 0 
945112 1952170 0 945112 1951930 0 945114 1952170 0 
945114 1951930 0 945116 1952170 0 945116 1951930 0 
945118 1952170 0 945118 1951930 0 945120 1952170 0 
945120 1951930 0 945122 1952170 0 945122 1951930 0 
945124 1952170 0 945124 1951930 0 945126 1952170 0 
945126 1951930 0 945128 1952170 0 945128 1951930 0 
945130 1952170 0 945130 1951930 0 945132 1952170 0 
945132 1951930 0 945134 1952170 0 945134 1951930 0 
945136 1952170 0 945136 1951930 0 945138 1952170 0 
945138 1951930 0 945140 1952170 0 945140 1951930 0 
945142 1952170 0 945142 1951930 0 945144 1952170 0 
945144 1951930 0 945146 1952170 0 945146 1951930 0 
945148 1952170 0 945148 1951930 0 
METADATA
INFORMATION 2
NAME L2_NORM_RANGE LOCATION vtkDataArray
DATA 2 2.16859e+06 2.16893e+06 
NAME L2_NORM_FINITE_RANGE LOCATION vtkDataArray
DATA 2 2.16859e+06 2.16893e+06 

CELLS 268 534
OFFSETS vtktypeint64
0 2 4 6 8 10 12 14 16 
18 20 22 24 26 28 30 32 34 
36 38 40 42 44 46 48 50 52 
54 56 58 60 62 64 66 68 70 
72 74 76 78 80 82 84 86 88 
90 92 94 96 98 100 102 104 106 
108 110 112 114 116 118 120 122 124 
126 128 130 132 134 136 138 140 142 
144 146 148 150 152 154 156 158 160 
162 164 166 168 170 172 174 176 178 
180 182 184 186 188 190 192 194 196 
198 200 202 204 206 208 210 212 214 
216 218 220 222 224 226 228 230 232 
234 236 238 240 242 244 246 248 250 
252 254 256 258 260 262 264 266 268 
270 272 274 276 278 280 282 284 286 
288 290 292 294 296 298 300 302 304 
306 308 310 312 314 316 318 320 322 
324 326 328 330 332 334 336 338 340 
342 344 346 348 350 352 354 356 358 
360 362 364 366 368 370 372 374 376 
378 380 382 384 386 388 390 392 394 
396 398 400 402 404 406 408 410 412 
414 416 418 420 422 424 426 428 430 
432 434 436 438 440 442 444 446 448 
450 452 454 456 458 460 462 464 466 
468 470 472 474 476 478 480 482 484 
486 488 490 492 494 496 498 500 502 
504 506 508 510 512 514 516 518 520 
522 524 526 528 530 532 534 
CONNECTIVITY vtktypeint64
0 1 2 3 4 5 6 7 8 
9 10 11 12 13 14 15 16 17 
18 19 20 21 22 23 24 25 26 
27 28 29 30 31 32 33 34 35 
36 37 38 39 40 41 42 43 44 
45 46 47 48 49 50 51 52 53 
54 55 56 57 58 59 60 61 62 
63 64 65 66 67 68 69 70 71 
72 73 74 75 76 77 78 79 80 
81 82 83 84 85 86 87 88 89 
90 91 92 93 94 95 96 97 98 
99 100 101 102 103 104 105 106 107 
108 109 110 111 112 113 114 115 116 
117 118 119 120 121 122 123 124 125 
126 127 128 129 130 131 132 133 134 
135 136 137 138 139 140 141 142 143 
144 145 146 147 148 149 150 151 152 
153 154 155 156 157 158 159 160 161 
162 163 164 165 166 167 168 169 170 
171 172 173 174 175 176 177 178 179 
180 181 182 183 184 185 186 187 188 
189 190 191 192 193 194 195 196 197 
198 199 200 201 202 203 204 205 206 
207 208 209 210 211 212 213 214 215 
216 217 218 219 220 221 222 223 224 
225 226 227 228 229 230 231 232 233 
234 235 236 237 238 239 240 241 0 
240 242 243 244 245 246 247 248 249 
250 251 252 253 254 255 256 257 258 
259 260 261 262 263 264 265 266 267 
268 269 270 271 272 273 274 275 276 
277 278 279 280 281 282 283 284 285 
286 287 288 289 290 291 292 293 294 
295 296 297 298 299 300 301 302 303 
304 305 306 307 308 309 310 311 312 
313 314 315 316 317 318 319 320 321 
322 323 324 325 326 327 328 329 330 
331 332 333 334 335 336 337 338 339 
340 341 342 343 344 345 346 347 348 
349 350 351 352 353 354 355 356 357 
358 359 360 361 362 363 364 365 366 
367 368 369 370 371 372 373 374 375 
376 377 378 379 380 381 382 383 384 
385 386 387 388 389 390 391 392 393 
394 395 396 397 398 399 400 401 402 
403 404 405 406 407 408 409 410 411 
412 413 414 415 416 417 418 419 420 
421 422 423 424 425 426 427 428 429 
430 431 432 433 434 435 436 437 438 
439 440 441 442 443 444 445 446 447 
448 449 450 451 452 453 454 455 456 
457 458 459 460 461 462 463 464 465 
466 467 468 469 470 471 472 473 474 
475 476 477 478 479 480 481 482 483 
484 485 486 487 488 489 490 491 492 
493 494 495 496 497 498 499 500 501 
502 503 504 505 506 507 508 509 510 
511 512 513 514 515 516 517 518 519 
520 521 522 523 524 525 526 527 528 
529 1 241 
CELL_TYPES 267
3
3
3
3
3
3
3
3
3
3
3
3
3
3
3
3
3
3
3
3
3
3
3
3
3
3
3
3
3
3
3
3
3
3
3
3
3
3
3
3
3
3
3
3
3
3
3
3
3
3
3
3
3
3
3
3
3
3
3
3
3
3
3
3
3
3
3
3
3
3
3
3
3
3
3
3
3
3
3
3
3
3
3
3
3
3
3
3
3
3
3
3
3
3
3
3
3
3
3
3
3
3
3
3
3
3
3
3
3
3
3
3
3
3
3
3
3
3
3
3
3
3
3
3
3
3
3
3
3
3
3
3
3
3
3
3
3
3
3
3
3
3
3
3
3
3
3
3
3
3
3
3
3
3
3
3
3
3
3
3
3
3
3
3
3
3
3
3
3
3
3
3
3
3
3
3
3
3
3
3
3
3
3
3
3
3
3
3
3
3
3
3
3
3
3
3
3
3
3
3
3
3
3
3
3
3
3
3
3
3
3
3
3
3
3
3
3
3
3
3
3
3
3
3
3
3
3
3
3
3
3
3
3
3
3
3
3
3
3
3
3
3
3
3
3
3
3
3
3
3
3
3
3
3
3
3
3
3
3
3
3
3
3
3
3
3
3

CELL_DATA 267
FIELD FieldData 5
bottom 1 267 double
1952170 1952168 1952166 1952164 1952162 1952160 1952158 1952156 1952154 
1952152 1952150 1952148 1952146 1952144 1952142 1952140 1952138 1952136 
1952134 1952132 1952130 1952128 1952126 1952124 1952122 1952120 1952118 
1952116 1952114 1952112 1952110 1952108 1952106 1952104 1952102 1952100 
1952098 1952096 1952094 1952092 1952090 1952088 1952086 1952084 1952082 
1952080 1952078 1952076 1952074 1952072 1952070 1952068 1952066 1952064 
1952062 1952060 1952058 1952056 1952054 1952052 1952050 1952048 1952046 
1952044 1952042 1952040 1952038 1952036 1952034 1952032 1952030 1952028 
1952026 1952024 1952022 1952020 1952018 1952016 1952014 1952012 1952010 
1952008 1952006 1952004 1952002 1952000 1951998 1951996 1951994 1951992 
1951990 1951988 1951986 1951984 1951982 1951980 1951978 1951976 1951974 
1951972 1951970 1951968 1951966 1951964 1951962 1951960 1951958 1951956 
1951954 1951952 1951950 1951948 1951946 1951944 1951942 1951940 1951938 
1951936 1951934 1951932 1951930 1951930 1951930 1951930 1951930 1951930 
1951930 1951930 1951930 1951930 1951930 1951930 1951930 1951930 1951930 
1951930 1951930 1951930 1951930 1951930 1951930 1951930 1951930 1951930 
1951930 1951930 1951930 1951930 1951930 1951930 1951930 1951930 1951930 
1951930 1951930 1951930 1951930 1951930 1951930 1951930 1951930 1951930 
1951930 1951930 1951930 1951930 1951930 1951930 1951930 1951930 1951930 
1951930 1951930 1951930 1951930 1951930 1951930 1951930 1951930 1951930 
1951930 1951930 1951930 1951930 1951930 1951930 1951930 1951930 1951930 
1951930 1951930 1951930 1951930 1951930 1951930 1951930 1951930 1951930 
1951930 1951930 1951930 1951930 1951930 1951930 1951930 1951930 1951930 
1951930 1951930 1951930 1951930 1951930 1951930 1951930 1951930 1951930 
1951930 1951930 1951930 1951930 1951930 1951930 1951930 1951930 1951930 
1951930 1951930 1951930 1951930 1951930 1951930 1951930 1951930 1951930 
1951930 1951930 1951930 1951930 1951930 1951930 1951930 1951930 1951930 
1951930 1951930 1951930 1951930 1951930 1951930 1951930 1951930 1951930 
1951930 1951930 1951930 1951930 1951930 1951930 1951930 1951930 1951930 
1951930 1951930 1951930 1951930 1951930 1951930 
METADATA
INFORMATION 0

id 1 267 double
1 2 3 4 5 6 7 8 9 
10 11 12 13 14 15 16 17 18 
19 20 21 22 23 24 25 26 27 
28 29 30 31 32 33 34 35 36 
37 38 39 40 41 42 43 44 45 
46 47 48 49 50 51 52 53 54 
55 56 57 58 59 60 61 62 63 
64 65 66 67 68 69 70 71 72 
73 74 75 76 77 78 79 80 81 
82 83 84 85 86 87 88 89 90 
91 92 93 94 95 96 97 98 99 
100 101 102 103 104 105 106 107 108 
109 110 111 112 113 114 115 116 117 
118 119 120 121 122 123 124 125 126 
127 128 129 130 131 132 133 134 135 
136 137 138 139 140 141 142 143 144 
145 146 147 148 149 150 151 152 153 
154 155 156 157 158 159 160 161 162 
163 164 165 166 167 168 169 170 171 
172 173 174 175 176 177 178 179 180 
181 182 183 184 185 186 187 188 189 
190 191 192 193 194 195 196 197 198 
199 200 201 202 203 204 205 206 207 
208 209 210 211 212 213 214 215 216 
217 218 219 220 221 222 223 224 225 
226 227 228 229 230 231 232 233 234 
235 236 237 238 239 240 241 242 243 
244 245 246 247 248 249 250 251 252 
253 254 255 256 257 258 259 260 261 
262 263 264 265 266 267 
METADATA
INFORMATION 0

left 1 267 double
944860 944860 944860 944860 944860 944860 944860 944860 944860 
944860 944860 944860 944860 944860 944860 944860 944860 944860 
944860 944860 944860 944860 944860 944860 944860 944860 944860 
944860 944860 944860 944860 944860 944860 944860 944860 944860 
944860 944860 944860 944860 944860 944860 944860 944860 944860 
944860 944860 944860 944860 944860 944860 944860 944860 944860 
944860 944860 944860 944860 944860 944860 944860 944860 944860 
944860 944860 944860 944860 944860 944860 944860 944860 944860 
944860 944860 944860 944860 944860 944860 944860 944860 944860 
944860 944860 944860 944860 944860 944860 944860 944860 944860 
944860 944860 944860 944860 944860 944860 944860 944860 944860 
944860 944860 944860 944860 944860 944860 944860 944860 944860 
944860 944860 944860 944860 944860 944860 944860 944860 944860 
944860 944860 944860 944860 944860 944862 944864 944866 944868 
944870 944872 944874 944876 944878 944880 944882 944884 944886 
944888 944890 944892 944894 944896 944898 944900 944902 944904 
944906 944908 944910 944912 944914 944916 944918 944920 944922 
944924 944926 944928 944930 944932 944934 944936 944938 944940 
944942 944944 944946 944948 944950 944952 944954 944956 944958 
944960 944962 944964 944966 944968 944970 944972 944974 944976 
944978 944980 944982 944984 944986 944988 944990 944992 944994 
944996 944998 945000 945002 945004 945006 945008 945010 945012 
945014 945016 945018 945020 945022 945024 945026 945028 945030 
945032 945034 945036 945038 945040 945042 945044 945046 945048 
945050 945052 945054 945056 945058 945060 945062 945064 945066 
945068 945070 945072 945074 945076 945078 945080 945082 945084 
945086 945088 945090 945092 945094 945096 945098 945100 945102 
945104 945106 945108 945110 945112 945114 945116 945118 945120 
945122 945124 945126 945128 945130 945132 945134 945136 945138 
945140 945142 945144 945146 945148 945150 
METADATA
INFORMATION 0

right 1 267 double
945150 945150 945150 945150 945150 945150 945150 945150 945150 
945150 945150 945150 945150 945150 945150 945150 945150 945150 
945150 945150 945150 945150 945150 945150 945150 945150 945150 
945150 945150 945150 945150 945150 945150 945150 945150 945150 
945150 945150 945150 945150 945150 945150 945150 945150 945150 
945150 945150 945150 945150 945150 945150 945150 945150 945150 
945150 945150 945150 945150 945150 945150 945150 945150 945150 
945150 945150 945150 945150 945150 945150 945150 945150 945150 
945150 945150 945150 945150 945150 945150 945150 945150 945150 
945150 945150 945150 945150 945150 945150 945150 945150 945150 
945150 945150 945150 945150 945150 945150 945150 945150 945150 
945150 945150 945150 945150 945150 945150 945150 945150 945150 
945150 945150 945150 945150 945150 945150 945150 945150 945150 
945150 945150 945150 945150 944860 944862 944864 944866 944868 
944870 944872 944874 944876 944878 944880 944882 944884 944886 
944888 944890 944892 944894 944896 944898 944900 944902 944904 
944906 944908 944910 944912 944914 944916 944918 944920 944922 
944924 944926 944928 944930 944932 944934 944936 944938 944940 
944942 944944 944946 944948 944950 944952 944954 944956 944958 
944960 944962 944964 944966 944968 944970 944972 944974 944976 
944978 944980 944982 944984 944986 944988 944990 944992 944994 
944996 944998 945000 945002 945004 945006 945008 945010 945012 
945014 945016 945018 945020 945022 945024 945026 945028 945030 
945032 945034 945036 945038 945040 945042 945044 945046 945048 
945050 945052 945054 945056 945058 945060 945062 945064 945066 
945068 945070 945072 945074 945076 945078 945080 945082 945084 
945086 945088 945090 945092 945094 945096 945098 945100 945102 
945104 945106 945108 945110 945112 945114 945116 945118 945120 
945122 945124 945126 945128 945130 945132 945134 945136 945138 
945140 945142 945144 945146 945148 945150 
METADATA
INFORMATION 0

top 1 267 double
1952170 1952168 1952166 1952164 1952162 1952160 1952158 1952156 1952154 
1952152 1952150 1952148 1952146 1952144 1952142 1952140 1952138 1952136 
1952134 1952132 1952130 1952128 1952126 1952124 1952122 1952120 1952118 
1952116 1952114 1952112 1952110 1952108 1952106 1952104 1952102 1952100 
1952098 1952096 1952094 1952092 1952090 1952088 1952086 1952084 1952082 
1952080 1952078 1952076 1952074 1952072 1952070 1952068 1952066 1952064 
1952062 1952060 1952058 1952056 1952054 1952052 1952050 1952048 1952046 
1952044 1952042 1952040 1952038 1952036 1952034 1952032 1952030 1952028 
1952026 1952024 1952022 1952020 1952018 1952016 1952014 1952012 1952010 
1952008 1952006 1952004 1952002 1952000 1951998 1951996 1951994 1951992 
1951990 1951988 1951986 1951984 1951982 1951980 1951978 1951976 1951974 
1951972 1951970 1951968 1951966 1951964 1951962 1951960 1951958 1951956 
1951954 1951952 1951950 1951948 1951946 1951944 1951942 1951940 1951938 
1951936 1951934 1951932 1951930 1952170 1952170 1952170 1952170 1952170 
1952170 1952170 1952170 1952170 1952170 1952170 1952170 1952170 1952170 
1952170 1952170 1952170 1952170 1952170 1952170 1952170 1952170 1952170 
1952170 1952170 1952170 1952170 1952170 1952170 1952170 1952170 1952170 
1952170 1952170 1952170 1952170 1952170 1952170 1952170 1952170 1952170 
1952170 1952170 1952170 1952170 1952170 1952170 1952170 1952170 1952170 
1952170 1952170 1952170 1952170 1952170 1952170 1952170 1952170 1952170 
1952170 1952170 1952170 1952170 1952170 1952170 1952170 1952170 1952170 
1952170 1952170 1952170 1952170 1952170 1952170 1952170 1952170 1952170 
1952170 1952170 1952170 1952170 1952170 1952170 1952170 1952170 1952170 
1952170 1952170 1952170 1952170 1952170 1952170 1952170 1952170 1952170 
1952170 1952170 1952170 1952170 1952170 1952170 1952170 1952170 1952170 
1952170 1952170 1952170 1952170 1952170 1952170 1952170 1952170 1952170 
1952170 1952170 1952170 1952170 1952170 1952170 1952170 1952170 1952170 
1952170 1952170 1952170 1952170 1952170 1952170 1952170 1952170 1952170 
1952170 1952170 1952170 1952170 1952170 1952170 1952170 1952170 1952170 
1952170 1952170 1952170 1952170 1952170 1952170 
METADATA
INFORMATION 0

